15
Properties=species:S:1:pos:R:3:REF_forces_delta:R:3 REF_energy_delta=-10333.974029054447 pbc="F F F"
H        1.54620000      -0.53461000       0.06079000       1.15676201      -0.28548788      -0.08526668
O        2.50870000      -0.78407000      -0.02064000      -0.82450519      -0.42724281       0.13846588
H        2.57720000      -1.77041000       0.05703000      -0.08087630       0.65459614      -0.03571736
H       -2.37503000      -0.54776000       2.08120000       0.66766035      -0.24939790      -0.01955123
O       -1.40438000      -0.88948000       2.10185000      -0.55693976       0.39633816       0.81098881
H       -0.99844000      -0.66979000       3.00639000      -0.20796507      -0.19448830      -0.64710243
H       -0.49977000      -0.30142000       0.79878000       0.45943543       0.23777804      -0.75324537
O       -0.00000000      -0.00000000      -0.00000000      -0.88117186      -0.64340378       0.10434007
H       -0.40263000      -0.45470000      -0.76296000       0.42312726       0.36660750       0.71410694
H       -0.48339000       3.06830000      -1.04019000       0.29520215      -0.23555108       0.53153015
O       -0.05430000       2.73963000      -0.17621000      -0.38573297      -0.66966468      -0.49924925
H       -0.09310000       1.71779000      -0.18197000       0.09639794       1.15207386      -0.04694519
H       -1.26463835      -2.15980545      -2.25772881       0.10145974       0.73782395      -0.07729478
O       -1.22567835      -1.13551545      -2.33672881      -1.00577044      -0.69832853      -0.12653402
H       -2.20471835      -0.85001545      -2.38642881       0.74291672      -0.14165269      -0.00852555
15
Properties=species:S:1:pos:R:3:REF_forces_delta:R:3 REF_energy_delta=-10333.97969853051 pbc="F F F"
H        0.77562000      -0.56892000      -1.37599000       0.61258547      -0.38554430      -0.94812045
O        1.29463000      -0.88997000      -2.18211000      -0.45506378      -0.34867625       0.71535198
H        1.29780286      -1.90060792      -2.16465000      -0.03718678       0.66799923       0.05057303
H        0.03568000       1.63072000       0.06461000       0.06491797       1.15521378      -0.07091911
O        0.04291000       2.65778000       0.03422000       0.19663419      -0.72444576       0.64594453
H        0.44991000       2.94472000       0.90414000      -0.25442194      -0.22879058      -0.58007078
H       -0.95979000      -0.30800000      -0.04390000       0.89888582       0.19876924       0.07765625
O       -0.00000000      -0.00000000      -0.00000000      -0.48511725      -0.44382394       0.76302058
H        0.41207000      -0.28926000       0.85428000      -0.44207688       0.19126370      -0.78927272
H        0.85169000      -0.65253000       2.96024000       0.28449074      -0.28591614      -0.55756690
O        1.31706000      -0.97295000       2.14610000       0.39216409       0.65941181       0.78831629
H        2.20334000      -0.48002000       2.13159000      -0.58258553      -0.41609154      -0.09383054
H       -3.09263000      -0.50997000       0.78565000       0.41946558      -0.26058313      -0.51528060
O       -2.54083000      -0.83499000       0.02889000      -0.98982791       0.43572175       0.00429879
H       -2.99983000      -0.58415000      -0.81343000       0.37713620      -0.21450787       0.50989965
15
Properties=species:S:1:pos:R:3:REF_forces_delta:R:3 REF_energy_delta=-10334.0539993493 pbc="F F F"
H        3.04165000      -0.81558000       0.75673000      -0.41181724      -0.19163949      -0.51997896
O        2.46185000      -1.10955000       0.02105000       0.48589859      -0.51311150       0.59126269
H        2.34215000      -2.07452000       0.00201000       0.03262156       0.64585720      -0.05163562
H        0.94425000      -0.27725000       0.01710000      -0.71290513       0.26173316      -0.04265628
O       -0.00000000      -0.00000000      -0.00000000       0.80388619       0.67628383      -0.02989284
H        0.05625000       1.01859000      -0.03923000      -0.05016639      -0.86331142       0.08182179
H       -2.01684000      -0.67894000       2.32762000       0.62624246      -0.19418216      -0.11640272
O       -1.04523000      -0.99330000       2.22326000      -0.19333318       0.58117250      -0.64361584
H       -0.66669000      -0.57711000       1.35866000      -0.52863851      -0.48058430       0.96956512
H       -2.09280000      -0.71519000      -2.24581000       0.67596536      -0.21755813       0.06593976
O       -1.14552000      -1.02170000      -2.23425000      -0.16207966       0.61509012       0.64287272
H       -0.66872000      -0.61137000      -1.43005000      -0.60157750      -0.48566507      -0.89947540
H        1.06955000       3.15494000      -0.19455000      -0.71938248      -0.25933941       0.03035914
O        0.12665000       2.80745000      -0.23674000       0.53889399       0.63248789      -0.75868003
H       -0.25556000       3.05052000      -1.14002000       0.21639195      -0.20723322       0.68051647
15
Properties=species:S:1:pos:R:3:REF_forces_delta:R:3 REF_energy_delta=-10334.076992394357 pbc="F F F"
H        2.26763000       0.48660000      -2.25375000      -0.65431308       0.27819645       0.13507698
O        1.37340000       0.92640000      -2.10100000       0.86427976       0.45360710      -0.29879952
H        1.42460000       1.94040000      -2.17645000      -0.12135116      -0.68921438       0.07523561
H        0.49712000       0.32300000      -0.80554000      -0.45015225      -0.30893581       0.66373624
O       -0.00000000      -0.00000000      -0.00000000       0.44697750      -0.65125082      -0.74066795
H        0.05396000      -0.99760000      -0.04124000      -0.02131931       0.99371800       0.04133380
H       -1.69828000       0.54240000      -0.19276000      -0.93358448       0.42354247      -0.06772016
O       -2.58831000       0.93450000      -0.28518000       0.38160212      -0.58967984      -0.44130379
H       -3.08722000       0.52270000      -1.06899000       0.34030803       0.26203703       0.49389854
H       -0.65645000      -3.18396000      -0.00148000       0.66943565       0.23698278       0.14383429
O        0.30066000      -2.84888000       0.06236000      -0.44002710      -0.71429159      -0.85248065
H        0.67695000      -3.13166000      -0.82952000      -0.20889303       0.22636814       0.69294338
H        0.96052000       0.41450000       2.94039000       0.26353962       0.26429128      -0.61719263
O        1.41754000       0.81090000       2.13710000      -0.63833774      -0.50766927      -0.23865592
H        0.94289000       0.54270000       1.31259000       0.50183546       0.32229847       1.01076179
15
Properties=species:S:1:pos:R:3:REF_forces_delta:R:3 REF_energy_delta=-10333.982925882174 pbc="F F F"
H       -0.93500000       0.28117000       0.10711000       0.87043479      -0.24764944      -0.09756343
O       -0.00000000      -0.00000000      -0.00000000      -0.81917787      -0.72614220       0.18040191
H        0.01050000      -0.99790000      -0.01094000      -0.09877495       0.92243522      -0.04497363
H        0.73990000       0.59060000       1.43367000       0.50836814       0.57803070       0.86069387
O        1.17360000       1.07332000       2.22634000      -0.70438282      -0.66162356      -0.16598979
H        0.64930000       0.80489000       3.05373000       0.31050058       0.17079311      -0.52484349
H        0.58090000      -2.95207000       0.85020000      -0.38777557       0.19782658      -0.55464130
O        0.08180000      -2.70073000      -0.00045000       0.81398066      -0.61762410       0.03110153
H        0.56710000      -3.04057000      -0.81652000      -0.40745604       0.26385643       0.52953944
H       -2.97521000       0.69613000       0.73157000       0.39569742       0.27957550      -0.44275200
O       -2.42740000       1.01621000      -0.02940000      -1.02703758      -0.48557856      -0.08956776
H       -2.94988000       0.79468000      -0.86372000       0.44926180       0.23493353       0.51836433
H        0.77791774       0.61107804      -1.28681767       0.49288891       0.50644273      -0.96030909
O        1.13201774       1.01225803      -2.13991767       0.24364077      -0.63408947       0.65312100
H        2.08221774       0.71281803      -2.20631767      -0.64016823       0.21881354       0.10741839
15
Properties=species:S:1:pos:R:3:REF_forces_delta:R:3 REF_energy_delta=-10334.053497282668 pbc="F F F"
H       -2.16640000       0.52641000      -2.28080000       0.68730615       0.19397429      -0.04544981
O       -1.20010000       0.86128000      -2.35000000      -0.91676802       0.48576374      -0.01185271
H       -1.28280000       1.84038000      -2.31610000       0.15125053      -0.64832950      -0.03483856
H       -0.46340000       0.30990000      -0.83330000       0.43749835      -0.29846390       0.70297548
O       -0.00000000      -0.00000000      -0.00000000      -0.42957326      -0.66028164      -0.80906344
H       -0.01271219      -0.96521871      -0.08520000      -0.01343031       0.89937373       0.06117355
H       -0.86621774       0.55007197       3.04441767      -0.29929687       0.16492355      -0.59252931
O       -1.36531774       0.80141197       2.19376767       0.65997927      -0.48390976      -0.20152976
H       -0.88001774       0.46157197       1.37769767      -0.48504866       0.39151672       0.98604574
H        0.80418781      -3.18031871      -0.08370000      -0.61114354       0.36996743       0.13860814
O       -0.07571219      -2.70601871      -0.01120000       0.35379634      -0.77547334      -0.76270250
H       -0.55351219      -3.03491871      -0.85730000       0.25457476       0.25675588       0.58879131
H        2.98128000       0.67112000       0.74420000      -0.34776616       0.23711220      -0.50710626
O        2.51112000       1.04865000      -0.08450000      -0.45910360      -0.63182297       0.42756250
H        1.61816000       0.62105000      -0.09510000       1.01772502       0.49889357       0.05991564
15
Properties=species:S:1:pos:R:3:REF_forces_delta:R:3 REF_energy_delta=-10333.886458188706 pbc="F F F"
H       -1.60280000      -0.60749000       0.07860000      -1.00511318      -0.31287087       0.07909598
O       -2.57224000      -0.89181000       0.07610000       0.85318933      -0.39720894      -0.17219449
H       -2.51127680      -1.88932544      -0.03160000      -0.00739297       0.67187432       0.09552213
H        0.18664000       1.00707000      -0.13390000      -0.10552723      -0.91284245       0.12089462
O       -0.00000000      -0.00000000      -0.00000000       0.49688904       0.52890690      -0.88071768
H        0.45438000      -0.42804000      -0.79890000      -0.42333788       0.31799055       0.73658044
H        0.73720000      -0.50777000       1.30960000       0.45202196      -0.39049762       1.15290575
O        1.15228000      -0.75211000       2.23040000      -0.29041599      -0.31076826      -0.89259562
H        1.16870320      -1.80762544       2.24910000      -0.05212075       0.62585039      -0.05903713
H        0.47085000       3.06300000      -0.90980000      -0.24003897      -0.23429157       0.65151936
O        0.05734000       2.72240000      -0.06020000      -0.43405898       0.69672147      -0.80068307
H       -0.90925000       3.05625000      -0.07200000       0.66308477      -0.27627333       0.11515982
H        0.92621000      -0.53426000      -3.00483000       0.28620266      -0.36723871       0.59243631
O        1.39383000      -0.92379000      -2.20055000       0.40522607       0.73910931      -0.76899522
H        2.28659000      -0.49598000      -2.13367000      -0.59860788      -0.37846120       0.03010880
15
Properties=species:S:1:pos:R:3:REF_forces_delta:R:3 REF_energy_delta=-10334.132624906333 pbc="F F F"
H       -3.03435000      -0.64173000       0.83842000       0.41193222      -0.15268478      -0.56468608
O       -2.47413000      -0.92546000       0.05723000      -0.62685345      -0.60056605       0.70835739
H       -2.46858680      -1.94189544       0.10963000       0.03134514       0.67502172      -0.09860806
H        0.84492000      -0.63948000      -1.54376000       0.54780922      -0.36025334      -0.92949625
O        1.30316000      -0.93048000      -2.39758000      -0.38748225      -0.37868015       0.75348133
H        1.37361320      -1.90459543      -2.33432000      -0.03075723       0.67130369      -0.00913521
H       -0.88454000       3.14521000      -0.07780000       0.66797246      -0.30718214       0.01067889
O        0.02673000       2.74386000      -0.15468000      -0.48426893       0.70422741      -0.61602459
H        0.44291000       3.06621000      -0.96479000      -0.19598453      -0.23225880       0.56236559
H        0.02562000       1.00755000      -0.10675000      -0.07106914      -0.87120567       0.11906587
O       -0.00000000      -0.00000000      -0.00000000      -0.79527898       0.52363236      -0.06510861
H       -0.92650000      -0.34615000      -0.00358000       0.82944052       0.42073834      -0.05148827
H        0.77728000      -0.52803000       1.39580000       0.61244551      -0.41649483       0.89366012
O        1.24490000      -0.91756000       2.20008000       0.12010981       0.60652667      -0.60990068
H        2.13766000      -0.48975000       2.26696000      -0.62936038      -0.28212443      -0.10316144
15
Properties=species:S:1:pos:R:3:REF_forces_delta:R:3 REF_energy_delta=-10334.002078215204 pbc="F F F"
H       -0.01510000       1.75160000      -0.01780000       0.10326232       1.07819602       0.04204923
O        0.13405085       2.75376714      -0.02720000      -0.42090488      -0.60690151      -0.53796694
H       -0.41764915       3.11413714      -0.80050000       0.34083340      -0.25092394       0.51704807
H       -0.82520000      -0.76640000      -3.12730000      -0.26752600      -0.14774107       0.64046246
O       -1.25240000      -0.91110000      -2.25220000      -0.47118569       0.35415481      -0.94093135
H       -2.20200000      -0.61430000      -2.32700000       0.65769733      -0.26190425       0.14862872
H        0.93860000      -0.37100000      -0.01990000      -0.84589315       0.24981080      -0.00367188
O       -0.00000000      -0.00000000      -0.00000000       0.44915048      -0.46561342      -0.77719341
H       -0.48560000      -0.29230000      -0.79350000       0.44280499       0.17481054       0.68862599
H       -1.19751221      -2.00484491       2.10631456       0.03584091       0.67582967      -0.06130329
O       -1.20811221      -1.00634491       2.10325456       0.48909280      -0.31055012      -0.76777762
H       -0.68361221      -0.66664491       1.28274456      -0.63770821      -0.46725580       1.04440819
H        3.06062000      -0.57320000      -0.76790000      -0.36697868      -0.29183586       0.56362799
O        2.58087000      -0.94880000       0.04360000       0.91808599       0.55227290      -0.03102462
H        3.08884000      -0.60690000       0.87000000      -0.42657162      -0.28234878      -0.52498153
15
Properties=species:S:1:pos:R:3:REF_forces_delta:R:3 REF_energy_delta=-10333.91880318041 pbc="F F F"
H       -0.76603000      -0.38998000      -1.39370000      -0.51571177      -0.40872262      -0.96578751
O       -1.29266000      -0.75940000      -2.20877000       0.59382736       0.60887881       0.18179521
H       -0.96160000      -0.40311000      -3.06064000      -0.18059728      -0.25628538       0.58540948
H       -0.04930000       1.01078000       0.09490000       0.07883965      -0.95097642      -0.00535729
O       -0.00000000      -0.00000000      -0.00000000      -0.51042301       0.52574933       0.77154548
H       -0.51422000      -0.38916000       0.79470000       0.40037447       0.40831483      -0.69588055
H       -0.77330000      -0.60909000       2.96920000      -0.36889961      -0.17459207      -0.60060162
O       -1.30398000      -0.93126000       2.14090000       0.45857251      -0.56588345       0.78370462
H       -1.19602000      -1.95937000       2.12450000      -0.12406647       0.69529800      -0.07022740
H        2.90497000      -0.46587000      -0.82400000      -0.39272567      -0.27343272       0.53570129
O        2.44689000      -0.86799000      -0.02840000      -0.55982769       0.51676062      -0.41433827
H        1.45375000      -0.58980000      -0.02600000       1.19128933      -0.33866477      -0.11145582
H       -0.73904000       3.05183000       0.73360000       0.39428759      -0.28554545      -0.44569681
O       -0.24331000       2.65540000       0.00660000      -0.84446762       0.72196132      -0.09385837
H       -0.69533000       2.90915000      -0.84450000       0.37952821      -0.22286004       0.54504757
15
Properties=species:S:1:pos:R:3:REF_forces_delta:R:3 REF_energy_delta=-10334.15432280348 pbc="F F F"
H       -2.96991000      -0.69298000       0.80509000       0.33017951      -0.22796136      -0.56106841
O       -2.52591000      -1.05797000      -0.00016000      -0.50086743      -0.56807133       0.71879608
H       -2.55151430      -2.06845779       0.07290000       0.05245267       0.73945907      -0.11422084
H        0.72164000      -0.68228000      -1.43426000       0.56052880      -0.46424322      -0.79810713
O        1.22471000      -1.06365000      -2.19647000      -0.42503480      -0.30811616       0.64850613
H        1.26687570      -2.06085779      -2.11104000      -0.02942771       0.70967261       0.00632960
H       -1.15910000       2.79584000       0.11998000       0.64501148      -0.18411910      -0.01139525
O       -0.19567000       2.55377000       0.01200000      -0.51164160       0.66649403      -0.51023554
H        0.23011000       3.00203000      -0.74235000      -0.17607476      -0.29457313       0.47861187
H       -0.01470000       0.99998000       0.02426000       0.02627261      -0.98747689       0.04265078
O       -0.00000000      -0.00000000      -0.00000000      -0.87755599       0.67432120      -0.02195620
H       -0.95525000      -0.29563000      -0.05651000       0.82289022       0.33808351      -0.01264740
H        0.88353000      -0.75202000       1.28040000       0.46999423      -0.31807865       0.87970642
O        1.26811000      -1.03886000       2.15964000       0.25189893       0.38256283      -0.70093357
H        2.20291000      -0.80780000       2.14352000      -0.63862616      -0.15795341      -0.04403653
15
Properties=species:S:1:pos:R:3:REF_forces_delta:R:3 REF_energy_delta=-10333.971271404285 pbc="F F F"
H       -1.52476000       0.68510000      -0.08372000      -1.13989785       0.46845802      -0.04292307
O       -2.47122000       1.08570000      -0.12342000       0.93999177       0.26481556       0.01275838
H       -2.35151000       2.06410000      -0.16005000      -0.02943885      -0.65256906       0.03298724
H        0.54040000      -2.95228000      -1.07702000      -0.36421855       0.20518497       0.51455190
O        0.01771000      -2.70232000      -0.24639000       0.40770238       0.60278331      -0.46875127
H       -0.00068000      -1.72754000      -0.22612000      -0.05789894      -1.00343224      -0.04671098
H        0.85870000       0.63760000       3.03289000       0.25885078       0.30153464      -0.59939371
O        1.34749000       0.98950000       2.19207000       0.50621911      -0.54399069       0.78639580
H        2.28719000       0.64150000       2.22835000      -0.66007336       0.29834745      -0.03020566
H        0.62672000       0.25790000       0.80365000      -0.55735268      -0.22924003      -0.76640380
O       -0.00000000      -0.00000000      -0.00000000       1.03205396       0.55028844       0.05782535
H        0.46718000       0.42710000      -0.79019000      -0.46641293      -0.34397330       0.64934790
H        1.47809000       2.13800000      -2.26871000      -0.19326828      -0.74385135       0.07695100
O        1.35599000       1.15440000      -2.10735000       0.96193222       0.68682504      -0.09985525
H        2.26379000       0.80090000      -2.01378000      -0.63818879       0.13881922      -0.07657382
15
Properties=species:S:1:pos:R:3:REF_forces_delta:R:3 REF_energy_delta=-10333.915274182524 pbc="F F F"
H        3.03428000      -0.45860000      -0.82864000      -0.36450201      -0.38973489       0.47623520
O        2.54744000      -0.91030000      -0.04507000       0.94450370       0.65989819       0.07048416
H        3.03612000      -0.64680000       0.81011000      -0.37142333      -0.27702599      -0.53809242
H       -2.43250000      -0.43030000       2.02200000       0.62172232      -0.24176008       0.00138693
O       -1.47901000      -0.76830000       2.12821000      -0.14236763       0.59532836      -0.72346638
H       -1.01083000      -0.43250000       1.28885000      -0.59522542      -0.40912304       0.87893956
H        0.06814000       0.99000000      -0.02149000      -0.04461019      -0.92251327      -0.02460357
O       -0.00000000      -0.00000000      -0.00000000       0.93242388       0.59008839       0.06089944
H        0.92555000      -0.34940000       0.02464000      -0.86943837       0.26797361      -0.00727902
H       -0.66336434      -0.42394241      -3.13181439      -0.28369492      -0.17293769       0.49012456
O       -1.16245434      -0.73984241      -2.29131439       0.74949499       0.50957741       0.27647091
H       -0.65163434      -0.41294241      -1.45371439      -0.60847782      -0.40272590      -0.99293135
H       -0.39886377       2.96517922       0.83614000       0.26915077      -0.24056867      -0.63281577
O        0.08088623       2.68075922      -0.00954000       0.39407533       0.65795336       0.72849797
H        0.99080623       3.01243922      -0.01130000      -0.63163130      -0.22442979      -0.06385022
15
Properties=species:S:1:pos:R:3:REF_forces_delta:R:3 REF_energy_delta=-10334.015164854132 pbc="F F F"
H        2.14194000       0.53760000      -2.29542000      -0.61155099       0.34736061       0.13510957
O        1.21917000       0.94530000      -2.22643000       0.41155436      -0.56787611      -0.85838536
H        0.72244000       0.62970000      -3.02304000       0.27126283       0.26628726       0.57157236
H       -0.96363000       0.29950000       0.06007000       0.89185171      -0.24902098      -0.18027830
O       -0.00000000      -0.00000000      -0.00000000      -0.37913021       0.50233841      -0.65554184
H        0.48857000       0.31890000      -0.83429000      -0.54847195      -0.22622234       0.77814774
H       -0.01182000      -1.65508000      -0.04604000       0.05535042      -1.12142831      -0.01801548
O       -0.01033000      -2.65081000      -0.08008000       0.21164585       0.67568645      -0.54051952
H        0.40303000      -2.92374000      -0.92991000      -0.26250823       0.23225318       0.56485381
H        0.74746000       0.50400000       1.37333000       0.59309627       0.34800688       0.90058483
O        1.26802000       0.81560000       2.16372000      -0.39108724       0.38766730      -0.63823779
H        1.33622000       1.81260000       2.17532000      -0.06702740      -0.67658581      -0.06443417
H       -2.61530000       1.88960000       0.09863000       0.11104924      -0.65514180      -0.09305474
O       -2.50950000       0.90990000       0.08463000      -0.59781571       0.68179237       0.63671824
H       -2.97560000       0.63390000       0.90699000       0.31178106       0.05488291      -0.53851935
15
Properties=species:S:1:pos:R:3:REF_forces_delta:R:3 REF_energy_delta=-10333.94076126747 pbc="F F F"
H        0.18031000       1.65340000       0.08782000       0.00219729       1.19906407      -0.03065308
O        0.22343392       2.66365976       0.06393000      -0.32009958      -0.66208541       0.52879183
H       -0.32591608       3.01168976       0.84179000       0.34628200      -0.29244875      -0.50392770
H        2.44801000      -1.90620000      -0.02095000       0.04946579       0.68112161      -0.17204315
O        2.57101000      -0.92240000      -0.12155000       0.46828933      -0.59062615       0.78842279
H        3.16711000      -0.58380000       0.64241000      -0.42098247      -0.15113539      -0.60401492
H       -0.38318000      -0.42620000       0.82579000       0.44236840       0.42555517      -0.77438239
O       -0.00000000      -0.00000000      -0.00000000       0.33999826      -0.78172629       0.76758209
H        0.92201000      -0.37760000      -0.05940000      -0.74628649       0.32794344       0.00926647
H       -1.22582000      -1.97270000       2.21112000       0.08554910       0.70724076      -0.05930170
O       -1.18203000      -0.97030000       2.12285000      -0.88108514      -0.69272815       0.22650276
H       -2.15878000      -0.67480000       2.13134000       0.69267277      -0.10906226      -0.02498873
H       -0.55544000      -0.54110000      -1.44888000      -0.50766147      -0.32778351      -1.01453112
O       -1.02102000      -0.92240000      -2.27928000       0.76408677       0.42258135       0.27358066
H       -0.51068000      -0.62050000      -3.09875000      -0.31479454      -0.15591049       0.58969619
15
Properties=species:S:1:pos:R:3:REF_forces_delta:R:3 REF_energy_delta=-10334.009303505009 pbc="F F F"
H       -0.90600000      -0.58365000      -1.30070000      -0.50399206      -0.30545137      -0.91886850
O       -1.36100000      -0.93262000      -2.12220000      -0.18910497       0.43875719       0.80511768
H       -2.30150000      -0.54952000      -2.05130000       0.62219989      -0.19122614      -0.03226446
H       -0.49880000      -0.34637000       0.76310000       0.54282894       0.30691888      -0.64398823
O       -0.00000000      -0.00000000      -0.00000000       0.35873807      -0.70739749       0.60054524
H        0.94640000      -0.36801000       0.02870000      -0.87724704       0.34011745       0.08882686
H        0.76350000       2.97890000       0.19810000      -0.56396040      -0.30994004      -0.06848666
O       -0.18040000       2.60520000       0.07510000       0.57452921      -0.64673311       0.09194118
H       -0.09130000       1.61080000       0.06320000      -0.04777951       1.19874489      -0.01603864
H       -2.12751751      -0.52780401       2.23429974       0.69289429      -0.11448742       0.02982639
O       -1.16811751      -0.82842401       2.24831974      -0.84679995      -0.65352912       0.12828586
H       -1.19291751      -1.83490401       2.30599974       0.07003559       0.71829402      -0.03598453
H        2.59140000      -1.88949000      -0.03600000      -0.11190525       0.68983648       0.04169220
O        2.46731000      -0.90055000      -0.04730000       0.66777992      -0.61052984      -0.64273179
H        2.97682000      -0.54941000      -0.84390000      -0.38821673      -0.15337438       0.57212740
15
Properties=species:S:1:pos:R:3:REF_forces_delta:R:3 REF_energy_delta=-10334.046366709896 pbc="F F F"
H        0.96547000      -3.13322000      -0.09950000      -0.64612178       0.33730449       0.14543145
O        0.04247000      -2.74498000       0.00970000       0.34191584      -0.71267427      -0.68774484
H       -0.48591000      -3.10000000      -0.75220000       0.30066806       0.27785419       0.54356085
H       -0.87703000       0.59437000      -1.36580000      -0.45451296       0.25893862      -0.93034914
O       -1.33275000       0.81763000      -2.22410000       0.39019059       0.45019511       0.72912927
H       -1.24266000       1.79312000      -2.28650000      -0.02440026      -0.65283109       0.02843349
H       -0.48767000       0.22763000       0.85010000       0.43317662      -0.29778961      -0.78659484
O       -0.00000000      -0.00000000      -0.00000000      -0.51620606      -0.61582402       0.76402272
H       -0.07023000      -1.00627000      -0.02870000       0.02963232       0.82318479       0.05553152
H        1.47717000       0.63424000      -0.14180000       1.07234636       0.35780691      -0.06387126
O        2.45498000       0.94046000      -0.13960000      -0.88961065       0.37530788       0.09537127
H        2.37109000       1.92728000      -0.09790000       0.03641914      -0.65557992      -0.05547991
H       -0.87690000       0.46745000       3.05310000      -0.32762962       0.11160876      -0.61413322
O       -1.34201000       0.74285000       2.16450000       0.32502079       0.62961366       0.78615098
H       -1.33946000       1.75958000       2.10620000      -0.07088840      -0.68711550      -0.00945832
15
Properties=species:S:1:pos:R:3:REF_forces_delta:R:3 REF_energy_delta=-10333.987608718986 pbc="F F F"
H       -0.14051000       1.68588000      -0.07818000      -0.01691899       1.07380807      -0.03104650
O       -0.05723000       2.69805000      -0.09754000      -0.57255746      -0.63470382       0.03665224
H       -1.02770000       3.07347000      -0.09840000       0.56721855      -0.27972161      -0.01663662
H        0.55772000      -0.29020000      -0.76688000      -0.45668432       0.20217670       0.71788838
O       -0.00000000      -0.00000000      -0.00000000       0.93296627      -0.44357750       0.10238381
H        0.46334000      -0.32673000       0.82268000      -0.40822752       0.22768707      -0.81351214
H       -2.97095000      -0.60357000       0.64017000       0.31171663      -0.19990240      -0.55375951
O       -2.55609000      -0.96177000      -0.21710000       0.64576050       0.45438597       0.56407755
H       -1.56732000      -0.68620000      -0.15488000      -1.18739992      -0.32957687      -0.05270171
H        0.79718000      -0.59965000       3.02003000       0.26007672      -0.26579791      -0.59999725
O        1.24237000      -0.91393000       2.17026000       0.51647777       0.44372859       0.84870926
H        2.23021000      -0.64578000       2.22373000      -0.66861638      -0.21646765      -0.07760059