81
Properties=species:S:1:pos:R:3:REF_forces_delta:R:3 REF_energy_delta=-55803.83246259308 pbc="F F F"
H       -0.80934000       3.87998000      -2.88091000      -0.33174627      -0.25864486       0.54640362
O       -1.23123000       3.58732000      -2.03954000       0.30269920      -0.48065415      -0.67359938
H       -1.23432000       2.58518000      -2.10163000       0.01159657       0.70845981       0.09739334
H       -4.19236000       0.20592000      -1.21504000       0.53444052      -0.34421351      -0.78303587
O       -3.67335000      -0.11513000      -2.02116000      -0.54915170      -0.61275355       0.66939895
H       -3.67017714      -1.12576792      -2.00370000       0.02671066       0.97972359       0.06820862
H       -0.77865000       0.51499000      -1.44363000      -0.35985538       0.23647224      -0.63167855
O       -1.22549000       0.88014000      -2.25146000      -0.54688632      -0.54975402       0.67903889
H       -2.14685000       0.47368000      -2.22722000       0.92400213       0.39568212      -0.05988216
H       -0.35766000       0.23142000      -3.57071000       0.46232297      -0.38227151      -0.59171353
O        0.16587000      -0.22563000      -4.31059000       0.34800593       0.72503567       0.48121513
H        1.03097000       0.21544000      -4.36714000      -0.86941754      -0.41633097       0.08102974
H       -0.43185000       0.36474000       0.83907000       0.46603015      -0.31397891      -0.82539672
O       -0.00000000      -0.00000000      -0.00000000      -0.40078441      -0.55555862       0.91646805
H       -0.07624714      -0.99676792       0.12723000       0.06850338       0.91194511      -0.11771825
H        0.12856000       5.38653000       0.14805000       0.00699355      -0.64783589      -0.10254369
O        0.19879000       4.38652000       0.07679000      -0.41826866       0.58292697      -0.64423094
H       -0.29952000       4.09692000      -0.76762000       0.40033061       0.15906404       0.74054532
H       -5.92777000       0.46684000       0.11705000       0.65287521       0.21366426       0.06686342
O       -4.96798000       0.77484000       0.16095000      -0.46004713      -0.36273004       0.70712365
H       -4.55591000       0.48558000       1.01523000      -0.29582707       0.20810173      -0.74168738
H        3.17255000       0.48151000      -3.67865000      -0.42425878       0.34752593      -0.78971938
O        2.71481000       0.82355000      -4.50354000       0.46368591       0.36820623       0.75674104
H        2.69043000       1.82950000      -4.39703000       0.06532851      -0.61627754      -0.06189142
H        3.33394000       0.22327000      -1.52573000       0.37358092      -0.37592374      -0.59987054
O        3.86881000      -0.10629000      -2.27753000      -0.26738338      -0.58538170       0.56996683
H        3.88440286      -1.11686792      -2.27546000      -0.06212593       1.00092192       0.04119024
H        1.86068000       3.77290000       0.16829000       0.71675761      -0.41840028       0.10169208
O        2.78876000       3.36714000       0.28234000      -0.29352012       0.77889377      -0.61421461
H        3.29555000       3.71821000      -0.53213000      -0.32331381      -0.28002048       0.56172174
H        2.58496000       1.76144000       0.03405000      -0.15883971      -1.11662360      -0.09241524
O        2.51241000       0.78333000      -0.10251000      -0.66529183       0.85319724       0.23786578
H        1.55540000       0.54544000      -0.03477000       0.69489921       0.20777432      -0.07054938
H       -0.59169000       3.77653000       3.12469000      -0.32173628      -0.22191512      -0.59336560
O       -1.07271000       3.48104000       2.32651000       0.53448020       0.72868372      -0.09766741
H       -0.71570000       3.90501000       1.47559000      -0.25983154      -0.44905674       0.76647766
H       -1.19811000       1.83743000       2.30335000      -0.01063746      -1.05576956      -0.10274818
O       -1.19653000       0.81057000       2.22660000       0.25349391       0.60640954       0.80269476
H       -0.77802000       0.45954000       3.06709000      -0.34796289       0.28626882      -0.75236372
H       -4.11629000       0.12231000       3.12119000       0.37227844      -0.15252333      -0.45219941
O       -3.65092000      -0.19811000       2.30705000       0.31344097       0.50939162       0.64281877
H       -2.76464000       0.29482000       2.29254000      -0.60990561      -0.39369213      -0.06715859
H        1.06505000       0.16336000       4.54639000      -0.93811376      -0.38752801      -0.02317579
O        0.07593000      -0.11787000       4.50049000       0.80633105      -0.59566480       0.11123661
H        0.11511286      -1.12596792       4.61149000      -0.03597880       0.97766178      -0.07708739
H        2.57336000       1.72053000       4.34179000       0.05645416      -0.65365197      -0.03565131
O        2.56391000       0.72429000       4.36909000       0.41752882       0.53063144      -0.59483181
H        2.99578000       0.40016000       3.53669000      -0.41033729       0.22005310       0.58603619
H        3.26099000       0.09127000       1.23966000       0.35250020      -0.35951202       0.72002690
O        3.70784000      -0.23205000       2.12123000       0.18983726       0.62464401      -0.64970741
H        4.63141000       0.12694000       2.15434000      -0.51759432      -0.18972968      -0.10865707
H        1.01294286      -3.20236792      -4.35893000      -0.55630892       0.29436377       0.01141730
O        0.07830286      -2.89576792      -4.32894000       0.66426463       0.53709084       0.04915501
H        0.16015286      -1.86766792      -4.31605000      -0.09902001      -0.88946484       0.01737992
H       -0.82026714      -3.49716792      -2.92006000      -0.37405210      -0.09423886       0.57260674
O       -1.35412714      -3.77636792      -2.13627000       0.38058524      -0.59307023      -0.50113354
H       -1.33731714      -4.77876792      -2.08771000      -0.00571217       0.66352850      -0.11061877
H       -2.87046714      -3.22076792      -2.11128000      -0.65496333       0.35074679       0.08844610
O       -3.81030714      -2.84396792      -2.01568000       0.28682302      -0.59430396      -0.58930784
H       -4.26778714      -3.17646792      -2.87670000       0.32557215       0.20009989       0.53186197
H       -0.48152714      -3.17036792       0.91706000       0.38583565       0.48679879      -0.70148457
O       -0.08119714      -2.76186792       0.10435000      -0.70908501      -0.90246578       0.02834838
H       -0.53555714      -3.21316792      -0.65923000       0.38719282       0.51428871       0.65829201
H        3.33971286      -3.27596792      -1.29595000       0.36172935       0.37795764      -0.67558856
O        3.78790286      -2.91046792      -2.11373000       0.30326410      -0.59941713       0.64393314
H        4.72750286      -3.17446792      -2.01565000      -0.62167603       0.16480484      -0.03736979
H        2.48606286      -4.87376792       0.15146000      -0.00225913       0.62172193      -0.05749986
O        2.50737286      -3.86516792       0.02940000      -0.74381032      -0.61510517       0.07505254
H        1.56937286      -3.53526792       0.09358000       0.66493401      -0.12669543      -0.00220683
H       -2.20065714      -3.33536792       2.35310000       0.95129083      -0.23186204      -0.05052275
O       -1.23977714      -3.66486792       2.30565000      -0.88264733      -0.53486189      -0.00604464
H       -1.28443714      -4.66036792       2.29280000      -0.02611268       0.66244028       0.04924794
H        1.09622286      -3.21096792       4.40849000      -0.54417352       0.21433579       0.08390998
O        0.18019286      -2.90156792       4.61119000       0.13064600      -0.58739742      -0.67932416
H       -0.37410714      -3.22086792       3.81689000       0.47149430       0.35296789       0.64460952
H       -4.26542714      -3.21116792       1.67763000       0.30515015       0.29481445       0.59010246
O       -3.83034714      -2.92006792       2.54099000      -0.45058624       0.45981736      -0.60780991
H       -3.78713714      -1.89346792       2.49219000       0.06842136      -0.72513395      -0.06939201
H        3.89420286      -1.88516792       2.23401000      -0.14055012      -1.00887826      -0.02686948
O        3.79950286      -2.90236792       2.23393000      -0.22370718       0.53825896      -0.64802963
H        3.38242286      -3.18086792       1.35515000       0.41116843       0.38391629       0.72144272
81
Properties=species:S:1:pos:R:3:REF_forces_delta:R:3 REF_energy_delta=-55803.649204423135 pbc="F F F"
H        3.74622000      -1.74255000      -2.25295000      -0.15610707      -0.80551378       0.06145809
O        3.60499000      -2.74433000      -2.18931000      -0.19981628       0.51456707      -0.72053943
H        3.11029000      -3.04922000      -3.01816000       0.28514588       0.27537451       0.52253277
H        2.88078000      -3.28143000      -0.81819000      -0.39297361      -0.25255680       0.86182175
O        2.45889000      -3.57409000       0.02318000       0.21853760      -0.47597262      -0.92247061
H        2.45580000      -4.57623000      -0.03891000       0.02419338       0.58170715       0.02036004
H        0.87040000      -2.96335000      -0.00275000      -0.77299287       0.29407747       0.15648504
O       -0.06212000      -2.69741000       0.07914000       0.32514110      -0.62459060       0.42690647
H       -0.48619000      -3.11961000       0.87409000       0.48358929       0.43844794      -0.69976042
H       -1.24218000      -4.75585000       2.28828000       0.01398190       0.64551516      -0.02363705
O       -1.23495000      -3.72879000       2.25789000       0.34717669      -0.56306579       0.80111083
H       -0.82795000      -3.44185000       3.12781000      -0.39882263      -0.16899160      -0.78425290
H       -2.21060000      -3.32851000      -2.04007000       0.83461226      -0.18436386       0.07927463
O       -1.28435000      -3.69372000      -2.09344000      -0.37708515       0.21860444       0.56321969
H       -0.76913000      -3.40563000      -1.29367000      -0.33893211      -0.07602365      -0.54014744
H       -0.53534000      -3.07004000      -3.48745000       0.46324164       0.30003854      -0.71460303
O       -0.04613000      -2.79766000      -4.33332000      -0.70926103      -0.59268790       0.17835707
H       -0.55031000      -3.25727000      -5.11132000       0.31124582       0.21064368       0.48795218
H        3.81868000      -1.77488000       2.21077000      -0.02669262      -0.96422350      -0.03277360
O        3.88891000      -2.77489000       2.13951000      -0.37289495       0.61422921      -0.64466195
H        3.39060000      -3.06449000       1.29510000       0.43164749       0.32892791       0.81520824
H       -2.24807000       0.52317000      -2.18189000       0.85004964       0.32830663       0.11449201
O       -1.30132000       0.87553000      -2.15176000      -0.85765358       0.49847110      -0.17102033
H       -1.35278000       1.84977000      -2.18042000       0.03334160      -0.82198001       0.17366152
H        2.95156000       3.72456000      -0.85734000      -0.29037464      -0.21929936       0.56982302
O        2.41770000       3.44536000      -0.07355000       0.45961489      -0.48155407      -0.66890758
H        2.43451000       2.44296000      -0.02499000      -0.10241265       0.70018379       0.04972392
H       -0.08258000      -1.02235000       0.01842000       0.09207354       0.92420517       0.02313751
O       -0.00000000      -0.00000000      -0.00000000      -0.48513249      -0.60376663      -0.79544559
H       -0.56436000       0.34896000      -0.80538000       0.51032753      -0.34219529       0.84079543
H        0.90136000       4.00096000      -0.04856000      -0.79566533       0.24610393       0.18365923
O       -0.03848000       4.37776000       0.04704000       0.38373864      -0.30646670      -0.79238539
H       -0.49596000       4.04526000      -0.81398000       0.34527993       0.11057993       0.61697238
H        2.60466000       1.82170000      -4.21037000      -0.11700230      -0.67548825      -0.02038476
O        2.55068000       0.79951000      -4.24259000      -0.65714923       0.42416980       0.02088907
H        1.62230000       0.46577000      -4.20023000       0.78523222       0.34491488       0.01237407
H        1.53611000       0.35749000      -0.03034000       0.71650556       0.28786216       0.20571674
O        2.45027000       0.74752000       0.14367000      -0.33751131      -0.43237840      -0.97908198
H        2.98554000       0.48639000      -0.64773000      -0.49885285       0.14497051       0.72928992
H       -2.07394000       3.85166000       2.24952000       0.57655709      -0.20971489       0.09515751
O       -1.17736000       3.46256000       2.35923000      -0.21564234       0.60195446      -0.88216423
H       -0.71885000       3.81126000       1.46487000      -0.42150594      -0.35752998       0.90611038
H       -2.24066000       3.93856000      -2.17285000       0.62346923      -0.31196394       0.17156659
O       -1.27892000       3.56876000      -2.11779000      -0.47047424       0.64191654      -0.79625338
H       -0.79502000       3.95306000      -2.90472000      -0.19330126      -0.30951794       0.54069405
H       -0.00761000      -1.12260000      -4.36706000       0.10037995       0.90473283       0.06920935
O        0.04743000      -0.12895000      -4.36983000      -0.49896416      -0.55419238       0.39089252
H       -0.51352000       0.21610000      -3.58195000       0.43223564      -0.33016354      -0.45000305
H        3.42382000       0.21000000      -2.92821000       0.41021923      -0.37149039       0.68666434
O        3.89466000      -0.13734000      -2.13232000       0.27912718       0.62684603      -0.81577327
H        4.82695000       0.26815000      -2.21670000      -0.55443739      -0.27705671       0.07266858
H        3.22923000       0.14224000       1.50882000       0.36401620      -0.31016627       0.86274005
O        3.62157000      -0.12929000       2.38934000       0.23207026       0.37761140      -0.83630271
H        4.59564000       0.17834000       2.38694000      -0.48945182      -0.08963502      -0.03331202
H       -1.32246000       1.68635000       2.31263000       0.09454187      -0.95699829      -0.08117104
O       -1.29094000       0.71607000       2.21454000       0.37427800       0.68194904      -0.82322973
H       -0.80097000       0.50308000       1.35069000      -0.49302913       0.26447036       0.85094861
H        0.92427000      -3.21247000       4.52341000      -0.57907155       0.32985871      -0.02601309
O       -0.03300000      -2.86045000       4.49590000       0.70580970       0.44631211       0.04805438
H        0.01405000      -1.86490000       4.49211000      -0.03361884      -0.70763288      -0.02707649
H        2.92578000       0.47640000       3.71770000      -0.48355534       0.20950431       0.81048057
O        2.46646000       0.75064000       4.55071000      -0.37937054      -0.45744937      -0.58224813
H        1.52544000       0.35693000       4.63271000       0.96161735       0.31605021      -0.12993578
H       -0.55179000       0.15269000       3.67203000       0.38006770      -0.26237893       0.73307501
O       -0.11572000      -0.16193000       4.53231000      -0.77462904       0.33221974      -0.14223430
H       -0.58937000       0.19705000       5.35211000       0.21468809      -0.15620428      -0.55347850
H       -4.31629000      -2.86374000      -3.00674000       0.46448391       0.17928729       0.47507646
O       -3.76379000      -2.65101000      -2.20508000      -1.01942212      -0.57952720      -0.04537809
H       -4.25499000      -3.03418000      -1.40459000       0.41820812       0.33349324      -0.40057330
H       -4.43279000      -3.32604000       2.96865000       0.37496713       0.23626175      -0.49870167
O       -3.88049000      -2.97336000       2.22218000       0.28856637      -0.67533832       0.65338677
H       -2.91719000      -3.22995000       2.39630000      -0.71257436       0.27573859      -0.17215867
H       -4.59809000       0.41845000       0.81338000      -0.48041154       0.49813713      -0.73946343
O       -5.11649000       0.84706000       0.06273000       0.83100291      -0.54911844      -0.00916686
H       -4.55169000       0.67783000      -0.76576000      -0.42018400       0.20885027       0.77342928
H       -3.83359000      -0.98406000      -2.26542000       0.09373192       0.93006570       0.04319811
O       -3.81899000       0.04239000      -2.26759000      -0.37029409      -0.61284746      -0.81375860
H       -4.27339000       0.33337000      -3.10522000       0.31000946      -0.22522745       0.59102061
H       -2.98849000      -0.03955000       2.25592000      -0.71387025      -0.30467022      -0.05552724
O       -3.91869000      -0.31428000       2.16969000       0.63341904      -0.79445638       0.15922462
H       -3.97739000      -1.33948000       2.15330000       0.11299766       1.16723840      -0.02482379
87
Properties=species:S:1:pos:R:3:REF_forces_delta:R:3 REF_energy_delta=-59937.050139251536 pbc="F F F"
H        0.78761000      -3.05068000       3.46378000      -0.48559618       0.29003009       0.58978372
O        0.29561321      -2.78405985       4.31487523      -0.32018594      -0.67798081      -0.58322841
H       -0.69068679      -3.05743985       4.20251523       0.90467566       0.37831106       0.09486559
H        1.58380000       2.70370000      -1.96930000      -0.02532254       0.96464910       0.04574566
O        1.52440324       3.71557526      -1.98440000      -0.35181639      -0.56566705       0.61713248
H        1.02620324       4.01328526      -1.14990000       0.49700158      -0.33100567      -0.70945882
H        1.23400000       2.49480000       2.23900000       0.00019366       0.98221748       0.05819794
O        1.30180324       3.51566526       2.30530000      -0.43309988      -0.44617154      -0.79922627
H        0.85090324       3.92035526       1.48330000       0.47576227      -0.48032427       0.83662339
H       -3.14022000      -3.13558000      -1.16170000      -0.29842596       0.37878781      -0.70718653
O       -3.51318000      -2.76645000      -2.01130000      -0.38993531      -0.68054227       0.53599076
H       -4.44043000      -3.14412000      -2.10860000       0.66722272       0.23870933       0.09050322
H        0.14070000      -1.00480000      -4.28759000      -0.00934203       1.00056316       0.06578078
O        0.17650000       0.01400000      -4.29317000      -0.77565289      -0.70544358      -0.14299261
H       -0.77730000       0.30320000      -4.23374000       0.81357705      -0.29123248       0.05979549
H        2.42140000       0.66620000      -2.15490000      -0.97533912       0.25467234       0.07578016
O        1.47290000       0.96750000      -2.04940000       0.53238786      -0.65497049      -0.84994166
H        1.01130000       0.60200000      -2.86950000       0.44176546       0.31365623       0.81729852
H        0.55720000       0.42160000      -0.70110000      -0.55749833      -0.30629003       0.69439049
O       -0.00000000      -0.00000000      -0.00000000      -0.25790155       0.59024873      -0.67461708
H       -0.91570000       0.40870000       0.07120000       0.74991166      -0.28313769      -0.04755963
H       -2.50543000      -4.66734000       0.39540000      -0.02942512       0.69570341      -0.08929401
O       -2.58476000      -3.67893000       0.30330000       0.81063284      -0.65061249       0.22551677
H       -1.61400000      -3.37270000       0.33830000      -0.69491468      -0.03959606      -0.00703019
H       -2.88129000       0.59990000      -0.63630000       0.37071191       0.43744885       0.84962969
O       -2.49162000       1.08490000       0.18360000      -0.68262221      -0.84059063      -0.06036030
H       -2.91858000       0.64420000       0.97680000       0.42069040       0.40994932      -0.74410941
H        0.75010000      -3.14581000      -5.07949000      -0.28103044       0.18472623       0.43954087
O        0.20090000      -2.66624000      -4.34797000       0.66933907      -0.56934772       0.24398397
H        0.61680000      -3.01361000      -3.50330000      -0.38134965       0.31982996      -0.77221168
H       -0.05090000      -1.76200000       0.08430000      -0.12463186      -0.67968693       0.11219344
O       -0.11080000      -2.74953000       0.18550000       0.58340907       0.35937531       0.40388975
H        0.59650000      -3.06609000       0.84580000      -0.62422357       0.33847212      -0.45963489
H       -3.22949000       0.40470000       3.20310000      -0.39593912      -0.37206217      -0.72991319
O       -3.70085000       0.05990000       2.38000000       0.19773153      -0.55478461       0.72160567
H       -3.80348000      -0.94520000       2.36900000       0.10742846       0.93409492       0.10276855
H       -3.53847000      -1.07420000      -2.03540000       0.11022652       1.07849373      -0.10009328
O       -3.51045000      -0.06150000      -2.09780000       0.18644217      -0.75468998      -0.77962731
H       -3.05932000       0.18550000      -2.97130000      -0.32707211      -0.28074170       0.80034122
H       -2.30650000       1.92390000      -4.37665000      -0.02768331      -1.03138022       0.13234833
O       -2.34510000       0.91570000      -4.30713000      -0.26118833       0.71212573      -0.65779440
H       -2.82588000       0.60280000      -5.16914000       0.23596761       0.18972188       0.42190988
H        2.22130000      -3.16376000      -1.96810000      -0.86873329      -0.30434361      -0.00685477
O        1.29990000      -3.60085000      -2.00830000       0.28770510       0.43807058       0.70448348
H        0.75590000      -3.29964000      -1.22180000       0.46956057      -0.19821438      -0.67384175
H        2.49360000      -3.13928000       2.04680000      -0.99965455      -0.36487861      -0.08938871
O        1.57270000      -3.54713000       1.97720000       0.92723824      -0.35386237       0.08603317
H        1.66820000      -4.52772000       2.11130000      -0.00834732       0.60882171      -0.12110251
H        2.27060000       0.44580000       2.09330000      -1.03711140       0.25682933      -0.06369286
O        1.33480000       0.77550000       2.10290000       0.50718939      -0.75799304      -0.77564299
H        0.84930000       0.35930000       1.33460000       0.47986645       0.37168505       0.78159818
H       -3.49273000      -2.94753000       1.54940000      -0.25347515       0.42223520       0.56210343
O       -3.91214000      -2.54905000       2.34970000      -0.29074028      -0.91601646      -0.53089195
H       -4.79091000      -3.02389000       2.45640000       0.47917644       0.35514411      -0.07973237
H        0.22251321      -1.14096985       4.35168523      -0.04443557       1.10193005       0.04117436
O        0.14951321      -0.13766985       4.39994523       0.48922793      -0.74802987      -0.60234936
H        0.58821321       0.22453015       3.59170523      -0.42987613      -0.31735166       0.67890694
H       -2.36298679       1.98933015       4.47983523       0.09722093      -0.58351497       0.02814386
O       -2.35998679       0.98423015       4.51706523       0.66844337       0.35606515      -0.08186394
H       -1.44488679       0.61863015       4.40270523      -0.76480389       0.37377517       0.06455281
H       -2.91323679      -3.12654985       3.47525523       0.57885359      -0.14265485       0.56806132
O       -2.24498679      -3.43699985       4.18485523      -0.64196308      -0.54232693      -0.53514365
H       -2.30238679      -4.44003985       4.25918523       0.00920727       0.66277724      -0.04594112
H       -2.46099676       2.87689526       0.25540000       0.07659133       0.78436864      -0.03464375
O       -2.36060676       3.87321526       0.13740000      -0.56862244      -0.51853805      -0.48722113
H       -2.91249676       4.15753526      -0.66300000       0.34248520      -0.27050101       0.52819878
H       -0.69689676       4.30070526       0.10370000       0.88972208       0.21230713       0.07224854
O        0.25410324       4.59960526       0.15320000      -0.82686277       0.35348062      -0.14405011
H        0.21950324       5.61138526       0.17800000      -0.04377285      -0.42808627       0.01278178
H       -2.63675676       3.95153526      -5.06004000       0.24940493      -0.26663706       0.69681544
O       -2.23349676       3.61866526      -4.19810000       0.34348418       0.75528842      -0.80264363
H       -1.30289676       3.96596526      -4.18825000      -0.55183649      -0.27025167       0.15135502
H        4.43996000      -3.00646000      -1.36100000      -0.39633582       0.24783696      -0.52695739
O        3.90084000      -2.66681000      -2.13030000       0.69260150       0.48663253       0.46416484
H        4.01676000      -1.69040000      -2.19040000      -0.22808063      -0.80855690       0.05672560
H        6.19170000       0.53930000       0.05010000      -0.80119635       0.18434042      -0.02661539
O        5.26435000       0.95680000       0.02460000       1.21534993       0.65563174       0.19709733
H        5.39183000       1.96480000       0.09520000      -0.29563138      -0.72757872      -0.09358601
H        4.44296000       0.60020000       1.37720000      -0.55971715      -0.47991426       0.64702806
O        3.94291000       0.12890000       2.11980000       1.03543220       0.50811242      -0.03006356
H        4.38402000       0.43220000       2.96100000      -0.37441169      -0.14557217      -0.52070418
H        4.51881000       0.37830000      -3.04340000      -0.32069100      -0.15998786       0.47743635
O        4.08791000       0.07490000      -2.22520000       0.97270389       0.55068914      -0.00182585
H        4.63999000       0.45940000      -1.46870000      -0.61327201      -0.31886344      -0.65392202
H        4.28456000      -2.73627000       3.03270000      -0.27603585       0.21768056      -0.65037238
O        3.98153000      -2.47963000       2.12420000       0.52782207       0.56733839       0.65737370
H        4.02789000      -1.46060000       2.14190000      -0.20856050      -0.70289478      -0.01856833
84
Properties=species:S:1:pos:R:3:REF_forces_delta:R:3 REF_energy_delta=-57870.53468130553 pbc="F F F"
H       -0.43452000       1.67640000      -4.22595000       0.04690192       0.85173700       0.24157122
O       -0.27704676       2.64289526      -4.08751000      -0.83814148      -0.46977314       0.50659080
H       -0.76119676       2.97280526      -3.25382000       0.53558197      -0.37733447      -0.84721889
H        3.55144000       1.58570000      -1.87757000       0.07951552       1.06239381       0.06470233
O        3.64019324       2.58487526      -1.92120000      -0.30467648      -0.68424911       0.80919378
H        3.15977324       2.95636526      -1.12922000       0.41260390      -0.41386957      -0.74050325
H        2.65913000      -0.64290000      -4.91158000      -0.30926940       0.01420093       0.53344276
O        2.16201000      -0.96590000      -4.10604000       0.33997300      -0.77148157      -0.82389179
H        2.21597000      -1.96350000      -4.14728000      -0.07318575       0.69559612       0.14669655
H        0.46373000      -0.42350000      -4.29880000      -0.55325746       0.36988237       0.02890947
O       -0.42630000      -0.03140000      -4.39122000       0.19013426      -0.82090510      -0.64378616
H       -0.92521000      -0.44320000      -5.17503000       0.34790154       0.31609632       0.50673391
H       -2.49174000      -0.69330000      -1.92244000       1.02482395      -0.16408377      -0.10944273
O       -1.50185000      -0.88510000      -1.99666000      -0.71317063       0.25086759      -0.65372185
H       -1.14570000      -0.58830000      -2.90700000      -0.31230566      -0.10853146       0.80566018
H        3.12253000      -0.55140000      -1.16565000       0.31154738       0.39929562      -0.65752263
O        3.57955000      -0.15500000      -1.96894000      -0.58454337      -0.73489044      -0.04779529
H        3.10490000      -0.42320000      -2.79345000       0.33337609       0.31347167       0.78799462
H       -1.48079000      -2.72330000      -2.04872000       0.01531709      -0.70180606       0.07118964
O       -1.54843000      -3.71309000      -2.04651000       0.37277278       0.49410384      -0.73493573
H       -1.00016000      -4.01229000      -2.82258000      -0.40626138       0.22165341       0.53242929
H        3.66166000       1.43430000       2.46892000      -0.20983320       0.71924223      -0.01233345
O        3.53159324       2.44744526       2.53482000       0.83257545      -0.46930588       0.14571691
H        4.44953324       2.81726526       2.52382000      -0.63728731      -0.28441091      -0.02134840
H       -1.04510000      -4.06916000       3.22242000      -0.35589824       0.32016194      -0.47690159
O       -1.58422000      -3.72951000       2.45312000       0.40717244       0.44083779       0.52160730
H       -1.46830000      -2.75310000       2.39302000      -0.05789523      -0.77836400       0.08694647
H        1.40201000      -0.78590000       0.10242000       0.69103225      -0.31893046       0.06074746
O        2.30288000      -1.21360000       0.20847000      -0.76953001      -0.58170869       0.09127525
H        2.20549000      -2.19800000       0.38113000       0.00974146       1.01208220      -0.01611576
H        4.48567000      -0.58690000       2.36672000      -0.61896751       0.22316735      -0.11696367
O        3.56633000      -0.17350000       2.35542000       0.28504230      -0.52940751      -0.58296829