57
Properties=species:S:1:pos:R:3:REF_forces_delta:R:3 REF_energy_delta=-39269.46825404466 pbc="F F F"
H       -1.12646000      -4.59392000      -2.24403000       0.03070658       0.70032775       0.04791255
O       -1.11923000      -3.56686000      -2.27442000       0.35818106      -0.43660523       0.62652440
H       -0.71223000      -3.27992000      -1.40450000      -0.43505064      -0.27713309      -0.78512765
H        0.03314000      -0.86042000      -4.51389000       0.09261858       0.66080633       0.08618585
O        0.11572000       0.16193000      -4.53231000      -0.43324334      -0.48526053      -0.82974656
H       -0.44864000       0.51089000      -5.33769000       0.42222769      -0.24659016       0.60669343
H       -1.95822000       4.01359000      -2.28279000       0.47826043      -0.33764017       0.21750734
O       -1.06164000       3.62449000      -2.17308000      -0.32733228       0.75818687      -1.11445348
H       -0.60313000       3.97319000      -3.06744000      -0.21946097      -0.39191717       0.80442159
H        3.34495000       0.30417000      -3.02349000       0.21993273      -0.21696815       0.66576084
O        3.73729000       0.03264000      -2.14297000       0.53081200       0.39955806      -0.91204983
H        4.71136000       0.34027000      -2.14537000      -0.68375499      -0.25483675       0.10368838
H       -1.20674000       1.84828000      -2.21968000       0.10800762      -0.83764455      -0.01875381
O       -1.17522000       0.87800000      -2.31777000       0.37156843       0.67644685      -0.86250501
H       -0.68525000       0.66501000      -3.18162000      -0.50025693       0.22289006       0.93761345
H        3.21415000      -3.22295000       0.65510000      -0.30357813      -0.16498384      -0.51235684
O        2.73313000      -3.51844000      -0.14308000       0.69607777       0.46917448      -0.12256059
H        3.09014000      -3.09447000      -0.99400000      -0.27625088      -0.26867493       0.62434109
H        0.83417000      -2.90683000       4.21580000      -0.58382486       0.15234011      -0.00229761
O       -0.10384000      -2.56287000       4.28630000       0.24191179      -0.58569503      -0.61689369
H       -0.59500000      -2.96185000       3.49240000       0.43595147       0.34709800       0.59793213
H       -2.26368000      -3.25527000       2.11440000       0.59914270      -0.13142838      -0.01971673
O       -1.28965000      -3.52366000       2.21370000      -0.23427556       0.32235669      -0.62180548
H       -0.79545000      -3.16188000       1.43680000      -0.43855752      -0.19763794       0.65641938
H        1.03999000      -3.05054000      -0.00890000      -0.88000222       0.38761936      -0.00560520
O        0.08272000      -2.69852000      -0.03641000       0.86948834       0.42503107       0.02332544
H        0.12977000      -1.70297000      -0.04020000      -0.00494349      -0.72400051       0.06209679
H       -0.74929000       0.57476000       2.95710000      -0.43277309       0.25925580      -0.87971101
O       -1.27342000       0.86066000       2.15400000       0.42967315       0.64928292       0.83599206
H       -1.29217000       1.84477000       2.19990000       0.05244744      -0.96071221      -0.03950247
H        1.68689000       4.04829000      -0.11649000       0.94670178      -0.43806895       0.01471476
O        2.64777000       3.71879000      -0.16394000      -0.83689073      -0.41902871      -0.11843752
H        2.60311000       2.72329000      -0.17679000       0.00312369       0.93880346       0.06532894
H       -0.42584000       0.38611000       5.12140000       0.26435007      -0.32025125      -0.45806002
O        0.02150000       0.00732000       4.27990000      -0.22314783      -0.53120121       0.58589609
H       -0.05828000      -1.00393000       4.30520000      -0.02775529       1.01010574      -0.02449482
H        3.04150000       0.63833000      -0.81461000      -0.62484054       0.15766877       0.84373048
O        2.58218000       0.91257000       0.01840000      -0.24807182      -0.43158127      -0.70090918
H        1.64116000       0.51886000       0.10040000       0.76076231       0.21469284      -0.07239019
H       -0.68174000       3.97529000       1.51360000      -0.39004750      -0.34435296       0.72988888
O       -1.21827000       3.65009000       2.28510000       0.63777054       0.62012095       0.01246372
H       -0.75333000       3.91999000       3.15580000      -0.26942017      -0.18938572      -0.62480241
H       -0.37788000       4.17249000      -0.79196000       0.42517232       0.17493283       0.77458485
O        0.05720000       4.46359000       0.07140000      -0.39970006       0.47702830      -0.76388064
H        0.10041000       5.49019000       0.02260000      -0.06146320      -0.55484045       0.01468107
H       -0.43607000       0.31462000      -0.86028000       0.41172132      -0.33662267       0.97234500
O       -0.00000000      -0.00000000      -0.00000000      -0.84777999       0.60897199      -0.14613831
H       -0.47365000       0.35898000       0.81980000       0.45866533      -0.34793318      -0.74821015
H        3.19743000       0.26493000       2.86830000       0.31737639      -0.12081710      -0.59250823
O        3.76228000       0.01241000       2.10320000      -0.66759364       0.41735350      -0.33183107
H        3.34966000       0.39286000       1.24090000       0.36988326      -0.40732521       1.04803192
H       -2.87277000       0.12238000      -2.27639000      -0.82493820      -0.31771947      -0.03130052
O       -3.80297000      -0.15235000      -2.36262000       0.67776548      -0.34582179      -0.05439468
H       -3.86167000      -1.17755000      -2.37901000       0.08993599       0.64905615       0.03390459
H       -2.94687000       0.28742000       2.06720000      -0.84349229      -0.30896370      -0.02645253
O       -3.89587000       0.00409000       2.05640000       0.43932089       0.45803387       0.60607337
H       -4.25667000       0.38221000       2.92800000       0.27888898      -0.22550049      -0.56116217
60
Properties=species:S:1:pos:R:3:REF_forces_delta:R:3 REF_energy_delta=-41336.21799569309 pbc="F F F"
H       -2.69694000      -2.55303000       0.01252000      -0.04692869      -0.87351451       0.06320029
O       -2.83817000      -3.55481000       0.07616000      -0.38526846       0.57207353      -0.66577925
H       -3.33287000      -3.85970000      -0.75269000       0.28841997       0.25056510       0.54558264
H        2.21837000      -3.99323000       2.25632000      -0.67085528       0.19908636      -0.00951758
O        1.24257000      -3.73316000       2.21772000       0.74179448       0.53986202      -0.04428847
H        1.16207000      -2.73165000       2.06734000       0.02085644      -0.84167051       0.07810684
H       -1.22906000      -4.10124000      -0.03702000       0.89566006      -0.23647647       0.11121993
O       -0.25841000      -4.44296000      -0.01637000      -0.44787046       0.38454986       0.61939839
H        0.14753000      -4.22327000       0.88817000      -0.42843476      -0.18150153      -0.69108471
H        0.64620000      -3.85490000      -1.31944000       0.42329481       0.27817607      -0.62861823
O        1.14597000      -3.55348000      -2.11822000      -0.66908553      -0.56906478       0.01961166
H        0.74334000      -4.00818000      -2.88118000       0.29080525       0.21060852       0.55825884
H       -1.65839000       3.20888000      -0.03074000      -0.90860889       0.25883667       0.06107919
O       -2.59303000       3.51548000      -0.00075000       0.73202386       0.45979665      -0.07712989
H       -2.51118000       4.54358000       0.01214000      -0.00726037      -0.67764112       0.01238194
H       -3.83850000       1.01122000      -1.94490000       0.04110633      -0.64826373       0.06343384
O       -3.89248000      -0.01097000      -1.97712000      -0.81931161       0.53866663      -0.15289474
H       -4.82086000      -0.34471000      -1.93476000       0.65352124       0.18842711       0.01980067
H       -4.90705000      -0.45299000       2.23513000       0.64664368       0.20190270       0.10967868
O       -3.99289000      -0.06296000       2.40914000      -0.23363191      -0.36917540      -0.76099573
H       -3.45762000      -0.32409000       1.61774000      -0.46759858       0.19238659       0.78284653
H       -3.01934000      -0.60048000      -0.66274000       0.53669714      -0.29514273       0.75791303
O       -2.54850000      -0.94782000       0.13315000       0.31425962       0.60486531      -0.83526786
H       -1.61621000      -0.54233000       0.04877000      -0.69675386      -0.37640614       0.10793916
H        0.43956000      -0.19043000      -0.87758000      -0.46883151       0.22708742       0.92772443
O       -0.00000000      -0.00000000      -0.00000000       0.37410307       0.79523140      -0.96026233
H       -0.07373000       1.03058000       0.02474000       0.04006862      -1.08350512       0.01951434
H        1.97217000      -0.57155000       2.19357000      -0.98875187      -0.32040636      -0.07968702
O        1.03697000      -0.95175000       2.20969000       0.60923183       0.68976224      -0.75146618
H        0.63733000      -0.50665000       1.42818000       0.30195967      -0.37281528       0.64125924
H        0.66838000       3.13528000       3.03224000       0.21521268       0.23198349      -0.57778372
O        1.11657000       3.50078000       2.21446000       0.50417262      -0.39354403       0.77903985
H        2.05617000       3.23678000       2.31254000      -0.64504256       0.16560871      -0.06192629
H        2.65637000      -0.39706000      -2.30735000       0.70886501       0.38085851       0.14988970
O        3.54957000       0.02279000      -2.21227000      -0.22500986      -0.49516264      -0.65574692
H        4.11327000      -0.31668000      -2.96414000      -0.45046399       0.21925516       0.48161833
H        4.15787000      -0.39203000       3.07885000      -0.33656213       0.32481632      -0.50816859
O        3.63947000       0.03658000       2.32820000       1.02490786      -0.41890745      -0.23278194
H        4.20427000      -0.13265000       1.49971000      -0.52386869       0.23571729       0.87405346
H        0.48973000       3.06168000       0.77947000      -0.47116925      -0.32995837      -0.74564088
O        0.00038000       2.73658000      -0.04351000       0.95679836       0.70465704      -0.07463601
H        0.47189000       3.11348000      -0.79279000      -0.48398133      -0.41352726       0.74398111
H        1.35907000       4.76818000      -2.32286000      -0.14052180      -0.76943363      -0.03686097
O        1.25267000       3.78098000      -2.30175000       0.93423955       0.65591293       0.02613449
H        2.17207000       3.40918000      -2.13396000      -0.67824756       0.11414850      -0.13992322
H        0.66258000      -0.48518000      -3.15841000       0.42483986      -0.34766778       0.96157681
O        1.09167000      -0.81385000      -2.29443000      -0.35602916      -0.51344888      -0.91142645
H        1.05287000      -1.83569000      -2.30019000       0.00123368       0.88782318       0.08084418
H        4.92237000      -1.79454000       0.00005000      -0.06320220       0.61540529      -0.05363730
O        4.93697000      -0.76809000      -0.00212000      -0.25264630      -0.44227763      -0.73988092
H        4.48257000      -0.47711000      -0.83975000       0.34869923      -0.26310336       0.77559383
H        0.26785000      -0.40576000       5.30197000      -0.34630971       0.12381821      -0.54727439
O       -0.29323000      -0.12881000       4.48721000       0.70349909      -0.31006883      -0.16021597
H        0.17890000      -0.44478000       3.59231000      -0.48545339       0.23660136       0.89070929
H       -3.07756835      -0.71269545      -5.01994881       0.41542278      -0.14003095       0.53243070
O       -2.47282835      -0.87742545      -4.24404881      -0.89719386       0.31327847      -0.09835008
H       -2.95631835      -0.55711545      -3.46924881       0.38029845      -0.27741334      -0.41097784
H        0.55278165      -0.21778545      -5.25434881      -0.39227984       0.32081432       0.47617766
O        0.00379165       0.25645455      -4.54674881      -0.50344015      -0.47981836      -0.65352743
H       -0.95033835      -0.10416545      -4.53444881       0.96197833       0.31736325      -0.00524816
66
Properties=species:S:1:pos:R:3:REF_forces_delta:R:3 REF_energy_delta=-45469.629781557305 pbc="F F F"
H        0.89841000      -0.30115000       3.27828000      -0.55379172       0.30447002       0.68251993
O        0.40641321      -0.03452985       4.12937523      -0.32609346      -0.78925772      -0.61995048
H       -0.57988679      -0.30790985       4.01701523       1.02354852       0.37442409       0.08718152
H        1.61070000      -2.64974000      -2.11230000       0.02122770      -1.05035302       0.01935810
O        1.74210000      -3.64411000      -2.09260000      -0.58148700       0.36860630       0.87669489
H        1.18090000      -4.01728000      -1.30190000       0.72575901       0.53628350      -1.10570553
H        0.83200000      -4.15590000       0.75020000      -0.36738464      -0.13131170      -0.70637533
O        0.35390000      -4.48594000      -0.05080000      -0.48534814       0.22494882       0.90184621
H       -0.56580000      -4.09909000       0.03010000       0.80294761      -0.19078615      -0.08085116
H       -2.69976000      -3.93224000       0.96200000       0.46436469       0.23457688      -0.56976859
O       -2.14590000      -3.65307000       0.14700000      -0.98172233      -0.50884945       0.23555219
H       -2.57149000      -4.02357000      -0.64730000       0.34026518       0.20952455       0.33311416
H        1.04350000      -3.75236000       3.01610000       0.31701070       0.28249301      -0.59872165
O        1.54690000      -3.48553000       2.19760000       0.34460748      -0.61127257       0.81750009
H        2.48100000      -3.91068000       2.20810000      -0.62067317       0.30820347      -0.10753451
H       -3.02942000      -0.38605000      -1.34720000      -0.28668044       0.37757064      -0.82105206
O       -3.40238000      -0.01692000      -2.19680000      -0.38749780      -0.55725561       0.78224724
H       -4.32963000      -0.39459000      -2.29410000       0.54797230       0.21637897       0.07856882
H        2.53220000       3.41573000      -2.34040000      -0.80146086       0.28320987       0.11723991
O        1.58370000       3.71703000      -2.23490000       0.68643236      -0.54023022      -0.89215558
H        1.12210000       3.35153000      -3.05500000       0.26225986       0.21264459       0.59503440
H        0.66800000       3.17113000      -0.88660000      -0.64786842      -0.31713496       0.74037411
O        0.11080000       2.74953000      -0.18550000      -0.23028455       0.55599476      -0.67209990
H       -0.80490000       3.15823000      -0.11430000       0.78305814      -0.28622359      -0.07170910
H       -2.39463000      -1.91781000       0.20990000       0.03765260       0.90128840      -0.11976786
O       -2.47396000      -0.92940000       0.11780000       0.72999983      -0.71249022       0.25491348
H       -1.50320000      -0.62317000       0.15280000      -0.61236518      -0.07731349      -0.01528328
H       -2.77049000       3.34943000      -0.82180000       0.33272876       0.41511265       0.81753855
O       -2.38082000       3.83443000      -0.00190000      -0.64108047      -0.69491551      -0.15422283
H       -2.80778000       3.39373000       0.79130000       0.25370180       0.28755444      -0.51383075
H        0.86090000      -0.39628000      -5.26499000      -0.29040121       0.23899820       0.47268931
O        0.31170000       0.08329000      -4.53347000       0.80779468      -0.33652827       0.20315834
H        0.72760000      -0.26408000      -3.68880000      -0.42399628       0.21854237      -0.75841657
H        0.05990000       0.98753000      -0.10120000      -0.12687933      -0.84521784       0.14371709
O       -0.00000000      -0.00000000      -0.00000000       0.56425704       0.44274710       0.45769465
H        0.70730000      -0.31656000       0.66030000      -0.68988403       0.32332773      -0.61610546
H       -3.42767000       1.67533000      -2.22090000       0.08172102       0.83103518      -0.07875970
O       -3.39965000       2.68803000      -2.28330000       0.28742149      -0.58037791      -0.62155792
H       -2.94852000       2.93503000      -3.15680000      -0.33981775      -0.25106327       0.56321992
H       -1.25870000      -0.53132000      -4.36878000      -1.00412185      -0.38401838       0.01029526
O       -2.15190000      -0.89034000      -4.38548000       0.54884753       0.51308821       0.72730837
H       -2.56427000      -0.62430000      -3.50970000       0.45291448      -0.21541176      -0.81519949
H        2.33210000      -0.41423000      -2.15360000      -0.94234114      -0.38874870       0.07293375
O        1.41070000      -0.85132000      -2.19380000       0.31016785       0.73952162       0.61727037
H        0.86670000      -0.55011000      -1.40730000       0.43360564      -0.24795951      -0.62392869
H        2.60440000      -0.38975000       1.86130000      -0.93596878      -0.38333258      -0.08556557
O        1.68350000      -0.79760000       1.79170000       0.92049326      -0.44478058       0.13756023
H        1.77900000      -1.77819000       1.92580000      -0.05358915       0.74854495      -0.21034110
H        2.38140000       3.19533000       1.90780000      -0.69123182       0.21334486      -0.01798454
O        1.44560000       3.52503000       1.91740000       0.44093419      -0.47001007      -0.81741298
H        0.96010000       3.10883000       1.14910000       0.45665958       0.30588943       0.77596282
H       -3.38193000      -0.19800000       1.36390000      -0.25529724       0.35261737       0.55297875
O       -3.80134000       0.20048000       2.16420000      -0.43560945      -0.69146978      -0.51565092
H       -4.68011000      -0.27436000       2.27090000       0.57485944       0.39434934      -0.09608060
H        0.33331321       1.60856015       4.16618523      -0.07764981       1.25756665       0.04187933
O        0.26031321       2.61186015       4.21444523       0.49555329      -0.70779772      -0.78860294
H        0.69901321       2.97406015       3.40620523      -0.55436686      -0.39067973       0.92416589
H       -2.80243679      -0.37701985       3.28975523       0.70620672      -0.25938100       0.65130920
O       -2.13418679      -0.68746985       3.99935523      -0.74320143      -0.44448295      -0.55211887
H       -2.19158679      -1.69050985       4.07368523      -0.01139515       0.62212497      -0.05396775
H        4.55076000      -0.25693000      -1.54650000      -0.42267250       0.16772265      -0.60986126
O        4.01164000       0.08272000      -2.31580000       0.75318182       0.72307465       0.61928888
H        4.12756000       1.05913000      -2.37590000      -0.12079467      -0.76148784      -0.02622987
H        4.39536000       0.01326000       2.84720000      -0.26317238       0.14698434      -0.68231663
O        4.09233000       0.26990000       1.93870000       0.50793554       0.77612133       0.76797715
H        4.13869000       1.28893000       1.95640000      -0.10996112      -0.83874377      -0.05996346
57
Properties=species:S:1:pos:R:3:REF_forces_delta:R:3 REF_energy_delta=-39269.62472126098 pbc="F F F"
H       -1.22352000       1.89480000       2.19077000       0.05676916      -0.75081873      -0.01925750
O       -1.29910000       0.90420000       2.23297000       0.52352805       0.46854320       0.71328486
H       -0.74869000       0.57273000       3.01806000      -0.52257285       0.33164710      -0.82426739
H        2.41799000       2.57625000       0.10421000      -0.07810893       0.98395487       0.12422200
O        2.47774000       3.58220000       0.28185000      -0.82910874      -0.45980682      -0.19873643
H        1.58300000       3.96489000       0.11822000       1.01028241      -0.41546608       0.14181911
H       -0.49584000       0.46050000       5.22688000       0.30234848      -0.29914153      -0.56115518
O       -0.01169000       0.13059000       4.39319000      -0.29055792      -0.46682507       0.55775457
H       -0.16916324      -0.83590526       4.25475000       0.04549365       0.84214521       0.08885216
H        3.08349000       0.53557000      -0.83282000      -0.54287988       0.20993081       0.81844390
O        2.54767000       0.85673000      -0.01303000       0.90233035      -0.54724134       0.03351272
H        2.98848000       0.56698000       0.83194000      -0.45032217       0.20786469      -0.90801965
H       -2.08183000       4.00195000       2.24559000       0.54139590      -0.24245201      -0.05264526
O       -1.10710000       3.69079000       2.26953000      -0.35716736       0.54290629       0.71222283
H       -0.61493000       4.08335000       3.06758000      -0.23121794      -0.30022180      -0.55627538
H       -0.46843000       4.36372000       0.86573000       0.37122033       0.12908738      -0.77715785
O       -0.03910000       4.60465000      -0.00101000      -0.88142841      -0.44429390       0.07332496
H       -0.54501000       4.13585000      -0.71512000       0.43215688       0.38559504       0.70171590
H       -0.53659000       0.39825000       0.75270000       0.52651527      -0.31026456      -0.74584716
O       -0.00000000      -0.00000000      -0.00000000       0.39110939       0.58195645       0.72892618
H        0.96238000       0.27542000       0.02596000      -0.97130152      -0.25330671      -0.02933989
H        3.35069000       0.47445000       3.01205000       0.25182775      -0.28649263      -0.59244831
O        3.84331000       0.09485000       2.19213000       0.54740451       0.48685660       0.80785717
H        4.78114000       0.43527000       2.23455000      -0.74509297      -0.26917164      -0.06767573
H       -0.24291321       0.18339985      -3.58611523       0.47000104      -0.32663768      -0.80762773
O        0.24414679      -0.16890015      -4.41361523      -0.65241353       0.53248045       0.06157090
H       -0.23949321       0.18656985      -5.21861523       0.32244757      -0.22912367       0.65539483
H       -1.12980321       2.47132985      -2.11881523       0.01380490       0.82939191       0.06164021
O       -1.16929321       3.46249985      -2.14071523       0.34046722      -0.59161587      -0.55931584
H       -0.58440321       3.75951985      -2.87341523      -0.37198819      -0.22799358       0.44762483
H        4.79789679       0.31977985      -2.03171523      -0.69306561      -0.34356441      -0.00736684
O        3.89076679      -0.10003015      -2.08651523       0.55263056       0.60231347      -0.67041298
H        3.45756679       0.24713985      -2.91861523       0.19006775      -0.32239171       0.55931308
H       -0.85073321       0.35702985      -1.49281523      -0.26561857       0.14133857      -0.62185696
O       -1.24183321       0.57111985      -2.35561523      -0.59841240      -0.48052337       0.77477049
H       -2.18062321       0.17058985      -2.26891523       0.96835835       0.32645674      -0.02638164
H        3.08092676      -3.26960526      -0.72541000      -0.43740210      -0.22205511       0.55187396
O        2.54027676      -3.56910526       0.07126000       1.03819980       0.50248316       0.03614037
H        3.05419676      -3.22250526       0.88207000      -0.41273478      -0.23462205      -0.54791041
H        0.72908676      -2.93580526       4.18190000      -0.63998563       0.17819915      -0.10252570
O       -0.16094324      -2.54370526       4.08948000       0.27594911      -0.52759906      -0.49438634
H       -0.65985324      -2.95550526       3.30567000       0.47389235       0.30450722       0.57992667
H       -2.36369324      -3.22370526       1.97783000       0.58172485      -0.26059073      -0.02486539
O       -1.42274324      -3.59120526       2.03854000      -0.26012103       0.55257041      -0.67713481
H       -0.99025324      -3.20330526       1.18707000      -0.39795140      -0.27717759       0.69461078
H       -0.04203324      -1.68880526       0.00211000       0.01118393      -0.69597997      -0.05296361
O       -0.02683324      -2.68890526      -0.06045000       0.80271316       0.43560752       0.27121043
H        0.93245676      -3.04020526       0.08717000      -0.91137444       0.38028918      -0.11361590
H       -0.72635644      -3.11283541      -3.11861523      -0.31147526      -0.25317162       0.50834861
O       -1.22640644      -3.58413541      -2.37601523       0.61652707       0.47105915       0.16570983
H       -0.78529644      -3.28083541      -1.53481523      -0.44053434      -0.27625011      -0.81971165
H       -2.85970000       0.26644000       2.29503000      -0.80665532      -0.39328488      -0.16347420
O       -3.77660000      -0.07467000       2.17028000       0.60964010      -0.35238735       0.07211188
H       -3.80990324      -1.03390526       1.97885000       0.08508124       0.68549521       0.10101594
H       -4.31841321       0.20731985      -3.01251523       0.29688522      -0.22597381       0.61614926
O       -3.86751321      -0.19737015      -2.19051523      -0.53127574      -0.44859187      -0.73040837
H       -3.93531644      -1.21823541      -2.25681523       0.07881069       0.62235748       0.09343572
57
Properties=species:S:1:pos:R:3:REF_forces_delta:R:3 REF_energy_delta=-39269.47789458137 pbc="F F F"
H       -0.49790000      -0.29445000      -5.19891000       0.21102872       0.32197301       0.54876518
O       -0.06420000       0.18827000      -4.40624000      -0.66107645      -0.56874979       0.14633602
H       -0.58850000      -0.08016000      -3.57885000       0.44034850       0.29432763      -0.83508144
H       -0.77770000      -0.35049000      -1.34040000      -0.39929740      -0.21332500      -0.69731721
O       -1.26280000      -0.53988000      -2.19237000       0.18447056      -0.53849597       0.65494481
H       -1.40140000      -1.54119000      -2.26677000       0.19964313       0.83047967       0.20272474
H       -2.84950000      -0.18655000      -2.34097000      -0.92231434       0.37866579       0.07709587
O       -3.83860000       0.07390000      -2.28409000       0.77519521       0.33667341      -0.00738746
H       -3.83240000       1.08036000      -2.29220000       0.13013088      -0.70507891      -0.02521586
H       -0.78060000      -3.64072000      -3.05055000      -0.09818349       0.27600143       0.48856825
O       -1.15960000      -3.27365000      -2.22342000      -0.42711043      -0.62606241      -0.61125679
H       -2.08980000      -3.58508000      -2.15299000       0.46698983       0.21453508       0.04044316
H       -0.28280000      -4.07667000       0.67929000       0.43383813      -0.20054406      -0.75291665
O        0.22320000      -4.37998000      -0.13270000      -0.82764825       0.36898856       0.18888156
H       -0.32270000      -3.97092000      -0.87335000       0.41351799      -0.18766658       0.57126652
H       -0.50680000      -0.31886000       0.81906000       0.53543560       0.28831913      -0.83778503
O       -0.00000000      -0.00000000      -0.00000000       0.39085920      -0.65273356       0.83055770
H        0.92730000      -0.45263000       0.01548000      -1.01564765       0.39538341      -0.03336676
H       -0.68030000       3.45445000      -1.34283000      -0.53395287       0.22537129      -0.88004801
O       -1.17980000       3.70136000      -2.16658000       0.72409211      -0.29519044       0.19671881
H       -0.74420000       3.39416000      -3.03301000      -0.27011425       0.13921469       0.53402005
H        0.86670000       3.07919000       0.02658000      -0.89619989      -0.46459920       0.06985368
O       -0.06400000       2.74059000       0.09558000       0.84674960      -0.46055740       0.04375801
H       -0.02810000       1.73195000       0.03219000      -0.03630695       0.69033805       0.01690578
H       -1.07880000      -0.51510000       3.04719000      -0.27457359      -0.21252630      -0.70058314
O       -1.45020000      -0.85920000       2.11622000      -0.58012943       0.45647774       0.68298507
H       -2.40040000      -0.52660000       2.04300000       0.85935870      -0.24106749       0.03232095
H       -0.25560000       1.06000000       4.36659000      -0.01840866      -0.66711116      -0.23366006
O       -0.31960000       0.06472000       4.25549000      -0.25701330       0.66790497       0.83512266
H       -0.71530000      -0.29573000       5.09909000       0.23125476       0.08549828      -0.57876690
H       -0.77570000      -3.73185000       2.76579000      -0.29672484       0.25045870      -0.54253495
O       -1.23430000      -3.47755000       1.88744000       0.13061502       0.52641350       0.63440833
H       -1.35480000      -2.46462000       1.92442000       0.18226124      -0.81369249      -0.08834601
H       -4.38997000      -0.14674000       1.20387000       0.35783280       0.12121837       0.54554446
O       -3.89950000       0.12845000       2.03041000      -0.44618557       0.62941073      -0.63885556
H       -3.91360000       1.14469000       1.96160000       0.08003977      -0.68604720       0.03225108
H       -0.86690000       3.27260000       1.40109000      -0.47939646       0.34266970       0.68361880
O       -1.37090000       3.72409000       2.18246000       0.63589459      -0.51698438       0.03348117
H       -0.94650000       3.41545000       3.04749000      -0.23601104       0.17877016      -0.59732039
H        4.70092000      -0.21625000      -2.16563000      -0.62234459       0.17552724       0.01249735