45
Properties=species:S:1:pos:R:3:REF_forces_delta:R:3 REF_energy_delta=-31002.14374540215 pbc="F F F"
H       -0.65440000       3.78216000      -1.58261000      -0.52723910      -0.35141663      -0.99509277
O       -1.16130000       3.45381000      -2.38731000       0.38554266      -0.46237984       0.79911645
H       -1.14710000       2.43460000      -2.34033000       0.06721692       0.95533691       0.03656435
H       -0.90370000       0.37711000      -3.14854000      -0.12421090       0.28266683       0.52034034
O       -1.28830000       0.82637000      -2.31705000      -0.52004524      -0.67968728      -0.61112357
H       -2.27860000       0.63151000      -2.36757000       0.62877625       0.15713632       0.09598664
H       -0.55180000       0.32502000       0.75676000       0.55517104      -0.27361176      -0.84925659
O       -0.00000000      -0.00000000      -0.00000000      -0.90521013       0.45030619       0.16416847
H       -0.45900000       0.25084000      -0.84232000       0.38520591      -0.12223049       0.60900292
H       -0.61410000       3.89552000       0.71609000       0.48765634       0.21314918      -0.70187150
O       -0.06180000       4.24820000      -0.03038000       0.45498120      -0.31245341       0.88932449
H        0.90150000       3.99161000       0.14374000      -0.93447985       0.21081430      -0.20082056
H       -0.95680000       3.67174000       3.02505000      -0.21025208      -0.17408577      -0.63312441
O       -1.42370000       3.46293000       2.16037000      -0.48186319       0.42255558       1.03806323
H       -2.36080000       3.78262000       2.26782000       0.53412977      -0.19282781      -0.18942475
H       -1.00850000       0.51031000       2.95795000      -0.40510142       0.31143140      -0.86074934
O       -1.45840000       0.77813000       2.10378000       0.29273964       0.43151919       0.77281329
H       -1.53360000       1.80832000       2.07340000       0.16418345      -0.76283272      -0.04073766
H       -4.42932000       0.15142000       1.04982000       0.32414273      -0.20934564       0.54659085
O       -3.98247000      -0.17190000       1.93139000       0.40570251       0.51240939      -0.41920065
H       -3.05890000       0.18709000       1.96450000      -0.83559166      -0.35374443      -0.13823499
H       -0.65360000       0.22537000       5.13695000       0.31062912      -0.18171694      -0.69255858
O       -0.24170000      -0.05311000       4.24505000      -0.22742958      -0.63753093       0.91497534
H       -0.16480714      -1.05941792       4.27195000      -0.00388323       0.76357157      -0.11996822
H       -1.45700714      -4.64781792      -2.18316000       0.07662037       0.68340301      -0.04132000
O       -1.40510714      -3.62281792      -2.26810000       0.25573698      -0.39594720       0.73640220
H       -0.94220714      -3.30181792      -1.41111000      -0.39359344      -0.31735689      -0.85711980
H       -0.07040714      -1.79821792       0.06558000       0.02485958      -0.62679574       0.00838296
O       -0.04690714      -2.78301792       0.02400000      -0.37380321       0.41603589       0.65912485
H       -0.54320714      -3.17801792       0.81656000       0.26326511       0.30257915      -0.46659946
H        3.31645000       0.26607000      -1.40488000       0.52265882      -0.38088764      -0.87894692
O        3.83546000      -0.05498000      -2.21100000      -0.40763867      -0.36186205       0.67844308
H        3.83863286      -1.06561792      -2.19354000      -0.02975021       0.67119077       0.04690223
H        2.57651000       2.46571000       0.03572000      -0.01184526       0.92453479      -0.10983851
O        2.58374000       3.49277000       0.00533000       0.37907564      -0.66070435       0.73128936
H        2.99074000       3.77971000       0.87525000      -0.17844239      -0.21034001      -0.60462279
H        1.58104000       0.52699000      -0.07279000       0.75140413       0.22136793       0.03212935
O        2.54083000       0.83499000      -0.02889000      -0.41890616      -0.38938872       0.86107302
H        2.95290000       0.54573000       0.82539000      -0.49538363       0.18169214      -0.87917792
H        3.39252000       0.18246000       2.93135000       0.28448841      -0.27922915      -0.58027053
O        3.85789000      -0.13796000       2.11721000       0.42443744       0.66904302       0.81354665
H        4.74417000       0.35497000       2.10270000      -0.61773674      -0.43691446      -0.08276177
H        1.66304286      -3.30991792      -0.00304000       0.83181969      -0.31356307       0.02616481
O        2.55962286      -3.69901792       0.10667000      -0.39487999       0.49903415      -0.56997616
H        3.01813286      -3.35031792      -0.78769000      -0.31315761      -0.19292476       0.54239256
48
Properties=species:S:1:pos:R:3:REF_forces_delta:R:3 REF_energy_delta=-33069.11812585511 pbc="F F F"
H        2.37035000       0.51360000      -2.37430000      -0.54267015       0.17842269       0.07945726
O        1.41444000       0.82430000      -2.20280000       0.72308117       0.72728764      -0.20694519
H        1.42635000       1.80960000      -2.32120000      -0.01460642      -0.92255213       0.12357024
H        0.58530000       0.30660000      -0.76500000      -0.52575111      -0.29434639       0.73126359
O       -0.00000000      -0.00000000      -0.00000000       0.91026145       0.65380663       0.09330684
H        0.47461000       0.34040000       0.80420000      -0.55527865      -0.37388646      -0.77863024
H        0.65556000       0.25900000      -5.21110000      -0.34340358      -0.22144800       0.57809107
O        0.11903000      -0.06620000      -4.43960000       0.69722318       0.46780796       0.07314396
H        0.58397000       0.20370000      -3.56890000      -0.49490563      -0.29937890      -0.74648552
H        0.70712000      -3.06262000       0.57190000      -0.46811996       0.47733688      -0.81563703
O        0.17091000      -2.70534000      -0.22850000       0.53079692       0.39474772       0.74915406
H        0.06544000      -1.73652000      -0.04610000       0.01986315      -0.74628554      -0.10879823
H        4.34793835       0.33344545       1.33432881      -0.36710313      -0.37451736       0.53917352
O        3.86015835      -0.04445455       2.12048881       0.98018241       0.73677270       0.01712924
H        4.30355835       0.37184545       2.94085881      -0.36821443      -0.41209771      -0.55898511
H       -0.96783165       0.44144545       4.24486881       0.58987072      -0.26986580      -0.05313047
O       -0.00609165       0.07164545       4.29992881      -0.08959593       0.62811535      -0.55119516
H        0.47780835       0.45594545       3.51299881      -0.55520416      -0.42554903       0.72577733
H        1.31530835       1.92294545       2.12966881       0.02013164      -0.85576930      -0.07108984
O        1.34716835       0.91554545       2.12681881       0.86779367       0.54567317      -0.04242023
H        2.28046835       0.56434545       2.00692881      -0.99889632       0.28450071       0.07203728
H        1.26521835      -4.61971455       2.05065881       0.07758908       0.67739740      -0.01304787
O        1.32025835      -3.62606455       2.04788881      -0.33834848      -0.60047256       0.68792379
H        0.75930835      -3.28101455       2.83576881       0.32156714      -0.10196206      -0.50049890
H        1.02725714       3.84018792      -1.51060000       0.27499545      -0.28122754      -0.74986310
O        1.42726714       3.51592792      -2.34830000      -0.65854254       0.52518227       0.15098498
H        0.87840714       3.78296792      -3.12230000       0.34834159      -0.14446799       0.57979489
H        0.58395714       4.05038792       0.73770000      -0.39113893       0.15677758      -0.62791362
O        0.18978714       4.40421792      -0.10560000      -0.32843321      -0.39999604       0.49503631
H       -0.71742286       4.00658792      -0.25020000       0.78138541       0.21997214       0.14878100
H        0.90969549       4.03292337       2.92106881       0.07717212      -0.32681659      -0.55425128
O        1.26551549       3.59287338       2.10121881       0.49339644       0.67980927       0.71406414
H        2.24444549       3.85321338       2.09993881      -0.57137833      -0.23010286      -0.13301415
H       -2.53547000       2.71840000      -0.24870000       0.13876605       0.77460986       0.01396911
O       -2.39526286       3.70403792      -0.28700000      -0.42333265      -0.53823832      -0.52175641
H       -2.93646286       3.95658792      -1.12740000       0.28462395      -0.17906311       0.51928707
H       -3.28167000       0.38210000      -3.27590000      -0.16671457      -0.28406464       0.51626022
O       -3.64037000       0.04990000      -2.42850000      -0.57403011       0.56481786      -0.79918240
H       -4.59997000       0.37160000      -2.44300000       0.62894288      -0.29640905       0.08456771
H       -1.48897000      -3.28339000      -0.16070000      -1.06514343      -0.34484731      -0.05775787
O       -2.44447000      -3.56976000      -0.20090000       0.84186490      -0.35715719       0.08660638
H       -2.44097000      -4.58725000      -0.18190000       0.05841394       0.65310044      -0.03216519
H       -1.57927000       0.73560000      -0.21880000      -0.72271564       0.08861518       0.00964443
O       -2.54317000       0.93800000      -0.20030000       0.45967540      -0.30761456      -0.87991553
H       -2.94037000       0.59530000      -1.03760000       0.52979907       0.19115126       0.87744944
H       -3.85466165      -0.94465455       1.91395881       0.08786931       0.66543774      -0.01042336
O       -3.80626165       0.04514545       2.03415881       0.22682699      -0.25279572      -0.74733958
H       -3.42416165       0.42334545       1.19584881      -0.40690667      -0.45041027       0.89397244
54
Properties=species:S:1:pos:R:3:REF_forces_delta:R:3 REF_energy_delta=-37202.461427997405 pbc="F F F"
H       -4.01771000       1.06159000      -2.28415000       0.10333856      -0.70114490       0.12804887
O       -3.89202000       0.02178000      -2.19069000      -0.58186823       0.53324090      -0.83124095
H       -4.34724000      -0.38325000      -3.01456000       0.34569154       0.23678222       0.64675603
H        0.67850000      -0.12991000      -4.36121000      -0.58131859       0.06976790      -0.00801528
O       -0.26575000       0.14734000      -4.37831000       0.80302944       0.79188437      -0.13593923
H       -0.20950000       1.16593000      -4.41754000      -0.09499965      -0.78611578       0.03534565
H       -2.28259000      -0.53160000      -2.05069000       0.92164396      -0.26489385      -0.02734870
O       -1.31098000      -0.84596000      -2.15505000      -0.48476805       0.62557783      -0.65644122
H       -0.93244000      -0.42977000      -3.01965000      -0.41746304      -0.37117690       0.81484611
H        3.30920000      -0.17746000      -1.49451000       0.29716325       0.13472954      -0.84215133
O        3.66950000       0.05222000      -2.39668000       0.42287570      -0.24216069       0.67466639
H        4.62860000      -0.22753000      -2.42320000      -0.74856535       0.15275661       0.04444578
H       -1.36327000      -2.55161000      -2.19942000       0.00669864      -0.96625384       0.01943739
O       -1.34288000      -3.57218000      -2.26262000      -0.74220086       0.69532077      -0.18705746
H       -2.32534000      -3.84137000      -2.24658000       0.58946330       0.18114185       0.00128470
H       -0.88406000       3.18474000      -1.39586000      -0.43017125       0.27797810      -0.73680364
O       -1.39385000       3.56981000      -2.18264000       0.64912284      -0.37431462      -0.01747693
H       -0.91395000       3.35386000      -3.04485000      -0.29561075       0.11891642       0.64118835
H       -3.91651000       1.09975000       2.24860000       0.09372631      -0.70693670      -0.10205351
O       -3.81755000       0.12339000       2.18940000      -0.68448172       0.68208000       0.80075958
H       -4.28604000      -0.22185000       3.04210000       0.35612639       0.14017554      -0.65910093
H       -1.41781000      -2.48257000       2.10340000       0.05948876      -1.26120213      -0.05974730
O       -1.44002000      -3.48319000       2.09110000       0.36821476       0.74778886      -0.61158942
H       -0.90967000      -3.81382000       1.32160000      -0.55027327       0.35124448       0.82788731
H        2.86550000      -0.49044000       0.75140000      -0.46787474      -0.40455733      -0.80418284
O        2.51290000      -0.88535000      -0.09402000      -0.37101202       0.71398845       0.71947167
H        1.54570000      -0.61514000      -0.09046000       0.70020608      -0.27945033       0.01846678
H        3.63040000       0.95448000       2.22610000       0.10726734      -0.78405854       0.00013442
O        3.76180000      -0.03989000       2.24580000      -0.50273585       0.64620270       0.70467747
H        3.20060000      -0.41306000       3.03650000       0.33576035       0.20637204      -0.58125143
H       -0.68006000      -0.32802000       5.30040000       0.37781457       0.11137226      -0.59091463
O       -0.12620000      -0.04885000       4.48540000      -0.67218231      -0.29895243      -0.01992105
H       -0.55179000      -0.41935000       3.69110000       0.42236506       0.23940007       0.66448119
H        2.86450000      -3.95515000       0.85570000      -0.19608729       0.29040044      -0.55336784
O        2.52090000      -3.55995000      -0.00064000       0.47971010       0.61428670       0.57962153
H        2.58780000      -2.60297000       0.00486000      -0.02792944      -0.96834029       0.03339055
H       -0.87997000      -0.53645000       1.29780000      -0.32143295      -0.28254291       0.69409856
O       -1.27692000      -0.79977000       2.19750000      -0.50245806       0.75586550      -0.58472684
H       -2.24649000      -0.46930000       2.17410000       1.02754390      -0.36783905      -0.11487829
H       -0.43587000      -0.33900000      -0.84835000       0.43589404       0.27734762       0.80113340
O       -0.00000000      -0.00000000      -0.00000000      -0.25165522       0.76256887      -0.69292664
H        0.02080000       1.01723000      -0.01159000      -0.02095188      -1.12037017      -0.05633966
H       -0.51796000      -4.14925000      -0.90714000       0.51356754      -0.33743849       0.85812107
O       -0.11470000      -4.48212000      -0.04520000       0.47539280       0.52483462      -0.85032307
H        0.81590000      -4.13482000      -0.03535000      -0.98808975      -0.34369411      -0.06584982
H       -1.00972000       3.21817000       2.99120000      -0.22246670       0.22138348      -0.60101274
O       -1.38268000       3.58730000       2.14160000      -0.61822788      -0.54066831       0.72708965
H       -2.30993000       3.20963000       2.04430000       0.77723765       0.30977573       0.01195191
H        2.88060000       3.20794000      -0.92659000      -0.43065327       0.34940569       0.45437690
O        2.33140000       3.68751000      -0.19507000       0.90935602      -0.65782193       0.19601553
H        2.74730000       3.34014000       0.64960000      -0.35306197       0.27833921      -0.63527929
H        0.76100000       3.07290000      -0.03038000      -0.96005545      -0.31931011      -0.06259888
O       -0.13220000       2.71388000      -0.04708000       0.53844185       0.59736986       0.82810824
H       -0.54457000       2.97992000       0.82870000       0.40145478      -0.25905523      -0.83726615
51
Properties=species:S:1:pos:R:3:REF_forces_delta:R:3 REF_energy_delta=-35135.77314782713 pbc="F F F"
H       -1.00567000       0.26817000      -4.24819000       0.72865604      -0.31548592       0.01361238
O       -0.03406000      -0.04619000      -4.35255000      -0.62046391       0.61667918      -0.83855637
H        0.34448000       0.37000000      -5.21715000      -0.20241478      -0.35851278       0.66381060
H       -3.38340000       0.27307000      -1.48130000      -0.30841705      -0.36144034      -0.69461553
O       -3.82803000      -0.11027000      -2.27635000       0.51057501       0.55624985       0.06812194
H       -3.37565000       0.24811000      -3.14544000      -0.25466919      -0.23786321       0.55507032
H       -2.63959000       1.89952000       0.05110000       0.15491406      -0.83855447      -0.04328331
O       -2.54063000       0.92316000      -0.00810000      -0.61436978       0.66203629       0.76403280
H       -3.00912000       0.57792000       0.84460000       0.45664185       0.29178139      -0.79571881
H       -3.49050000       0.16313000       3.04360000      -0.26450776      -0.14298393      -0.72001968
O       -3.86220000      -0.07457000       2.16030000       0.27027803      -0.61452918       0.89816584
H       -3.84787000      -1.06033000       2.07840000       0.00225064       0.70678450      -0.06937205
H       -0.14089000      -1.68280000      -0.09410000       0.06789519      -0.81280559      -0.02220915
O       -0.16310000      -2.68342000      -0.10640000       0.17277885       0.46102377      -0.74541626
H        0.36725000      -3.01405000      -0.87590000      -0.44986318       0.39405358       0.76381956
H        4.14242000       0.30933000      -1.44610000      -0.31649371      -0.30569549      -0.54002253
O        3.78982000      -0.08558000      -2.29152000      -0.58118198       0.54380697       0.39934725
H        2.82262000       0.18463000      -2.28796000       1.04401975      -0.33379481       0.07661181
H        4.12862000       0.24809000       2.89110000      -0.36837538      -0.20866461      -0.53568539
O        3.65052000      -0.08195000       2.09010000      -0.48377455       0.57856004       0.64149515
H        2.73082000       0.30490000       2.17100000       1.00281500      -0.43440340      -0.08600930
H        0.93472000      -4.42412000       2.21080000       0.00444906       0.68136392      -0.18292245
O        1.03511000      -3.42780000       2.09280000      -0.54043996      -0.31401773      -0.58674256
H        0.48322000      -3.14348000       1.29240000       0.61823195      -0.39122470       0.95615765
H        0.59686000       0.47175000       3.10290000       0.59110315       0.19542053      -0.87890883
O        1.15072000       0.75092000       2.28790000      -0.94180649      -0.33200041       0.19913955
H        0.72513000       0.38042000       1.49360000       0.33528510       0.19275443       0.53623870
H       -0.28840000      -0.96950000       4.43140000       0.18375318       0.62988649      -0.09182078
O       -0.27535000       0.03257000       4.37850000      -1.11788843      -0.57255305       0.29389831
H       -1.24739000       0.32110000       4.49960000       0.79829488      -0.11979880      -0.06494689
H        0.39695000       0.26332000      -0.89970000      -0.38582333      -0.31669165       0.93960706
O       -0.00000000      -0.00000000      -0.00000000      -0.59303998       0.61700032      -0.70704553
H       -0.96957000       0.33047000      -0.02340000       1.07216910      -0.32739007      -0.03864362
H        0.84105000       0.46077000      -3.04585000       0.44910963       0.35163910       0.88125291
O        1.27692000       0.79977000      -2.19750000      -0.38114334       0.61572299      -0.73178290
H        1.29772000       1.81700000      -2.20909000      -0.05298670      -0.97009925      -0.04010424
H        0.75896000      -3.34948000      -3.10464000       0.27442228      -0.23648163       0.59376899
O        1.16222000      -3.68235000      -2.24270000       0.34477004       0.44805124      -0.81692974
H        2.09282000      -3.33505000      -2.23285000      -0.54914747      -0.19206274       0.07504369
H       -3.09592000       3.88578000       0.82180000       0.37972690      -0.27837227      -0.48212081
O       -2.66839000       3.52238000      -0.03430000      -0.93725001       0.53546789       0.14150774
H       -3.25516000       3.84231000      -0.75930000       0.42147921      -0.24036853       0.33061194
H        0.26720000       4.01794000       0.79370000      -0.34879243       0.21586490      -0.77271286
O       -0.10576000       4.38707000      -0.05590000      -0.43992576      -0.36195784       0.65246812
H       -1.03301000       4.00940000      -0.15320000       0.78648750       0.20543139       0.11618282
H        0.90199000       2.48618000       2.35080000      -0.03921344       0.84673098      -0.15516686
O        0.82266000       3.47459000       2.25870000       0.64639747      -0.55487135       0.20179906
H        1.79342000       3.78082000       2.29370000      -0.58344372      -0.24586144      -0.00367388
H        2.03792000       3.87267000      -2.22788000      -0.62021335      -0.21463433      -0.02482302
O        1.14472000       3.51365000      -2.24458000       0.23902853       0.60016575       0.75246770
H        0.73235000       3.77969000      -1.36880000       0.44011330      -0.31335599      -0.84497858
48
Properties=species:S:1:pos:R:3:REF_forces_delta:R:3 REF_energy_delta=-33068.80476571591 pbc="F F F"
H        0.06300000       1.74080000      -0.07400000       0.02087596       0.69346575       0.10176325
O        0.07571219       2.70601871       0.01120000      -0.24551714      -0.41771565      -0.95942968
H       -0.38768781       3.01591871      -0.82210000       0.48838529      -0.39008338       0.81593876
H        0.93070000      -0.27650000      -4.39720000      -0.66274589       0.29676155       0.10692649
O       -0.01170000       0.08060000      -4.37820000       0.50571305      -0.47356552      -0.95829519
H       -0.40840000      -0.19930000      -5.26210000       0.28887767       0.24781316       0.68622630
H       -0.83150000      -0.44100000      -3.07300000      -0.45561275      -0.25624022       0.90222209
O       -1.24380000      -0.79440000      -2.19650000      -0.49678195       0.50962734      -0.92843921
H       -2.18980000      -0.51830000      -2.22250000       0.89964540      -0.18444545       0.08001583
H       -4.28538000      -0.34880000      -3.08630000       0.33235104       0.27713865       0.62531852
O       -3.84986000       0.00710000      -2.25090000      -0.85112554      -0.52979523      -0.09577084
H       -4.34792000      -0.35680000      -1.42440000       0.42789482       0.28508123      -0.52003932
H       -1.14540000      -2.53957000      -2.15180000      -0.03449669      -0.93711891       0.12401515
O       -1.20990000      -3.54129000      -2.14810000       0.49062900       0.48814301       0.60691174
H       -0.72180000      -3.87988000      -1.33560000      -0.49823404       0.41765671      -0.80160386
H        0.87530000      -4.32251000       0.26060000      -1.01578386      -0.12485713      -0.01339030
O       -0.13570000      -4.46620000       0.28040000       0.90661537      -0.54924479      -0.00341076
H       -0.25530000      -5.45515000       0.18270000       0.09832155       0.49210401       0.06303040
H        0.87990000      -0.47430000      -0.07250000      -0.99837994       0.37071894       0.09969387
O       -0.00000000      -0.00000000      -0.00000000       0.49538703      -0.72880691      -1.00685794
H       -0.47780000      -0.32890000      -0.84610000       0.47283225       0.34629543       0.93843574
H       -1.40021774      -1.67828803       2.07895767       0.12008754       1.06165701      -0.06332692
O       -1.36331774      -0.65948803       2.11467767       0.35052724      -0.69748929      -0.78212433
H       -0.82031774      -0.41328803       1.29064767      -0.50420479      -0.21213943       0.69367440
H       -0.64691774      -0.18368803       3.52303767       0.48189188       0.27611141       0.97216090
O       -0.12031774       0.04571197       4.38266767      -0.59582895      -0.40551090      -0.30378124
H       -0.59261774      -0.30028803       5.23928767       0.20010745       0.17964072      -0.51942138
H       -2.47881774      -3.73428803       2.23994767       0.61147794       0.23477778      -0.00322118
O       -1.60341774      -3.34978803       2.26220767      -0.23023916      -0.82055316      -0.48640789
H       -1.04061774      -3.82502803       1.55598767      -0.49614825       0.45276656       0.57699137
H       -2.09068781       3.23242871      -2.26960000       0.64531675       0.12318892      -0.00017546
O       -1.12438781       3.56729871      -2.33880000      -0.83320419       0.56193563      -0.11240272
H       -1.20708781       4.54639871      -2.30490000       0.09934434      -0.67557884      -0.03168023
H       -0.79050555       3.25609067       3.05561767      -0.27824736       0.10137799      -0.55986561
O       -1.28960555       3.50743067       2.20496767       0.66064180      -0.37014200      -0.34445692
H       -0.80430555       3.16759067       1.38889767      -0.49417115       0.31522880       1.08299421
H        4.76736000      -0.18820000      -2.17940000      -0.75352774       0.16274925       0.01515410
O        3.82978000       0.12550000      -2.11580000       0.93638378       0.62663400      -0.17123670
H        3.85486000       1.10770000      -2.14950000      -0.13408001      -0.70887300       0.00323913
H        2.93860000      -0.48940000      -0.68330000      -0.46460662      -0.38608304       0.75922582
O        2.51858000      -0.94630000       0.09880000       0.94007150       0.66136939      -0.01961888
H        2.95127000      -0.49120000       0.89510000      -0.59038427      -0.41468178      -0.71895126
H        2.92211000      -3.90831000       0.91010000      -0.36941129       0.23416470      -0.52901314
O        2.37965000      -3.66088000       0.08900000       0.54915727       0.58298185       0.52240622
H        2.37921000      -2.64952000       0.08540000      -0.11599241      -0.80148770       0.02618179
H        3.72835226       1.14171197       2.20133767      -0.15558955      -0.68798223       0.09171632
O        3.70945226       0.15151197       2.25787767       0.99458380       0.58849698      -0.04676975
H        4.66359226      -0.17178803       2.22094767      -0.74280615       0.18450778       0.08544832
45
Properties=species:S:1:pos:R:3:REF_forces_delta:R:3 REF_energy_delta=-31002.113855024872 pbc="F F F"
H        0.14737000      -1.64785000       0.03122000       0.05033596      -0.58887873      -0.09801003
O        0.19138000      -2.64938000      -0.00421000       0.27047226       0.39359360       0.88667988
H        0.63351000      -2.89315000       0.88882000      -0.40655442       0.36728002      -0.87356387
H        4.22877000       0.40084000       1.60795000      -0.36130407      -0.17581515       0.59265389
O        3.75671000       0.07396000       2.41498000       0.56284805      -0.65491389      -0.59931218
H        3.82105000      -0.95075000       2.45183000      -0.06903949       0.72765787      -0.03901735
H        1.01137000      -3.22567000       3.04137000       0.32610624      -0.13258355      -0.56450265
O        1.46161000      -3.50153000       2.23051000      -0.35867589      -0.70609976       0.80511840
H        1.33693781      -4.52060871       2.14807000       0.15523242       0.76843088      -0.02772467
H        2.18634000       0.64674000       2.31620000      -0.93970470       0.35003636      -0.02232369
O        1.21357000       1.01320000       2.30611000       0.42127948      -0.71605980       0.63472502
H        0.74020000       0.58659000       3.09894000       0.35545747       0.27738930      -0.49508377
H       -0.90322000       0.40508000       0.13467000       0.95543064      -0.32937249      -0.14719731
O       -0.00000000      -0.00000000      -0.00000000      -0.49683219       0.54437812       0.94055809
H        0.49895000       0.41784000       0.75243000      -0.39172270      -0.25757657      -0.76350406
H        0.70168000       0.58909000      -1.41839000       0.46940852       0.30508018      -0.72227440
O        1.28830000       0.93056000      -2.16556000      -0.76891265      -0.57753952      -0.25888206
H        0.82202000       0.75676000      -3.04102000       0.45293844       0.20154963       1.02706960
H        1.01245000      -3.11883000      -1.36139000       0.52314758      -0.30523818      -0.94084679
O        1.46965000      -3.49030000      -2.21173000       0.20024792       0.42882403       0.72970821
H        2.38412000      -3.16530000      -2.19754000      -0.65777699      -0.14776075       0.04050608
H       -0.90427000       4.16543000      -0.00572000       0.46563164       0.04004329      -0.02747216
O        0.03352000       4.48100000      -0.02372000      -0.73163205       0.57184394       0.12875790
H        0.01038000       5.48806000      -0.01554000       0.08249550      -0.51221670      -0.02713266
H        1.25433000       2.66881000       2.40960000      -0.03524262       1.02552680      -0.16170039
O        1.20520000       3.66478000       2.28599000      -0.35469477      -0.67241649      -0.42117969
H        0.73705000       3.88647000       1.42581000       0.45695380      -0.27204415       0.65747930
H        1.26219000       2.60684000      -2.11446000       0.13495885       1.19304947       0.04478373
O        1.35535000       3.61858000      -2.13958000      -0.49559308      -0.70246832       0.62850670
H        0.94497000       3.98577000      -1.31170000       0.48196440      -0.42873107      -0.80852416
H        0.01167774      -0.75890196      -4.43446767      -0.02368866       0.58004413       0.08390790
O       -0.00996226       0.26246803      -4.41166767       0.33415312      -0.54421122      -0.77338557
H        0.49417774       0.52819804      -5.26616767      -0.35300428      -0.10268881       0.54669828