81
Properties=species:S:1:pos:R:3:REF_forces_delta:R:3 REF_energy_delta=-55803.638208827644 pbc="F F F"
H       -3.22946000      -0.28471000      -1.55144000      -0.38538331       0.36662662      -0.77931848
O       -3.68720000       0.05733000      -2.37633000       0.17507358       0.68046077       0.90567899
H       -3.71158000       1.06328000      -2.26982000       0.13146593      -1.05290412      -0.08948048
H       -0.95680000       3.11758000      -4.25841000       0.58390307      -0.25410931      -0.09312690
O        0.00570000       2.86812000      -4.33984000      -0.59866188      -0.53573507       0.08742732
H        0.07420000       1.88178000      -4.26217000      -0.08904417       0.80628881      -0.00321012
H        0.79070000       3.53145000      -2.94225000       0.51921633       0.19701173       0.78361274
O        1.34320000       3.74418000      -2.14059000      -0.88837095      -0.33557455      -0.04537976
H        0.85200000       3.36101000      -1.34010000       0.41287341       0.28191517      -0.79057377
H        0.63390000       2.95579000       0.73444000      -0.45144032      -0.40356291      -0.92201012
O        0.12700000       2.62744000      -0.07026000       0.27836974      -0.50222801       0.95247554
H        0.14120000       1.60823000      -0.02328000       0.00753991       0.85743765      -0.09787284
H       -3.06807000      -0.54295000       0.60148000       0.48083709      -0.37756935      -0.71641188
O       -2.53320000      -0.87251000      -0.15032000      -0.40046561      -0.64558097       0.76066869
H       -2.51760714      -1.88308792      -0.14825000      -0.01451858       1.05388199       0.00264355
H       -1.43060000       3.21244000       0.05534000      -0.67270607       0.12738178      -0.07744316
O       -2.40640000       3.47251000       0.01674000       0.54040755       0.61768518       0.04231584
H       -2.48690000       4.47402000      -0.13364000       0.19007122      -0.71587598       0.08035554
H        0.62820000      -0.19682000      -3.61359000      -0.35464334       0.41573604      -0.69125313
O        0.17830000       0.20374000      -4.39884000       0.77692765      -0.58229467       0.09172510
H        0.63930000      -0.15145000      -5.21995000      -0.17258463       0.20449339       0.50863326
H        0.38460000      -0.44926000      -0.83149000      -0.30261907       0.37817498       0.61146349
O       -0.00000000      -0.00000000      -0.00000000      -0.59303590      -0.59111577      -0.49108879
H       -0.99030000      -0.19486000      -0.05052000       0.92095039       0.25143925      -0.01484889
H       -4.54133000       3.00668000       2.29550000       0.69286035      -0.32180712       0.09272602
O       -3.61325000       2.60092000       2.40955000      -0.36148883       0.77220072      -0.56838010
H       -3.10646000       2.95199000       1.59508000      -0.23525925      -0.32500455       0.51660380
H       -4.87803000       3.10443000      -2.23800000       0.61633882      -0.21286854      -0.02467973
O       -3.90738000       2.76271000      -2.21735000      -0.41596012       0.60812567       0.67009722
H       -3.50144000       2.98240000      -1.31281000      -0.26497490      -0.26983959      -0.70685485
H       -1.40050000      -0.33639000      -4.60785000      -1.07810465      -0.21677640       0.03911639
O       -2.40050000      -0.63604000      -4.65248000       0.25448684       0.44435090       0.76364275
H       -2.93195000      -0.32455000      -3.83621000       0.66835191      -0.33826053      -0.98141496
H        2.22200000      -0.53267000      -2.18368000      -0.86456716      -0.26044273      -0.07006597
O        1.26530000      -0.87793000      -2.21838000       0.79077244      -0.69353101       0.19424783
H        1.25379286      -1.89088792      -2.16538000       0.03669898       1.09170170      -0.03380519
H        0.73650000      -0.50135000       3.07381000       0.47586620      -0.27328534      -0.83292839
O        1.28830000      -0.82637000       2.31705000      -0.74129488       0.39799467       0.23672746
H        0.82930000      -0.57553000       1.47473000       0.30172192      -0.13617046       0.43880083
H        0.67420000       3.06915000       3.03314000       0.50755402       0.25023128      -0.73200697
O        1.22650000       3.42183000       2.28667000       0.36018732      -0.31753562       0.89837623
H        2.18980000       3.16524000       2.46079000      -0.88724513       0.20591524      -0.22624346
H       -3.81705000       0.99522000       2.16126000      -0.02285184      -1.08673589      -0.12190877
O       -3.88960000       0.01711000       2.02470000      -0.66181776       0.79084568       0.18030562
H       -4.84661000      -0.22078000       2.09244000       0.56209346       0.19436155      -0.08734512
H        0.33150000       2.84537000       5.34210000      -0.26146160      -0.17291652      -0.69019283
O       -0.13540000       2.63656000       4.47742000      -0.42997013       0.51424040       1.06375895
H       -1.07250000       2.95625000       4.58487000       0.52984799      -0.22556885      -0.19817031
H        0.27980000      -0.31606000       5.27500000      -0.36252093       0.23159428      -0.60908952
O       -0.17010000      -0.04824000       4.42083000       0.42618130       0.54754437       0.74238406
H       -0.24530000       0.98195000       4.39045000       0.07506697      -0.91717917      -0.07385652
H       -3.14102000      -0.67495000       3.36687000       0.49900206      -0.31759051       0.69985077
O       -2.69417000      -0.99827000       4.24844000       0.31665892       0.57931007      -0.57187411
H       -1.77060000      -0.63928000       4.28155000      -0.82819005      -0.37785308      -0.12311370
H        0.78629286      -3.93038792      -2.94310000       0.24164390       0.26026514       0.59627345
O        1.17429286      -3.55188792      -2.13947000      -0.65951473      -0.76040338       0.06165253
H        0.68139286      -3.85738792      -1.33250000       0.44836855       0.31267013      -0.78280121
H       -0.16870714      -5.47418792       0.13389000       0.07011334       0.59331072      -0.06447797
O       -0.11680714      -4.44918792       0.04895000       0.24785453      -0.48950448       0.85052092
H        0.34609286      -4.12818792       0.90594000      -0.34545731      -0.20974026      -0.76178992
H       -3.06229714      -4.04218792       0.83126000       0.33676415       0.29661292      -0.57742155
O       -2.61410714      -3.67668792       0.01348000       0.39159766      -0.69173767       0.76350758
H       -1.67450714      -3.94068792       0.11156000      -0.80410741       0.30394143      -0.13677899
H        1.21789286      -2.62458792       2.38263000       0.00529261      -0.67427701      -0.08027529
O        1.24139286      -3.60938792       2.34105000      -0.35707077       0.31832182       0.74370015
H        0.74509286      -4.00438792       3.13361000       0.36411857       0.35957220      -0.57000338
H        3.79318000       1.03888000      -2.10818000      -0.02524559      -0.88791159       0.01998541
O        3.79033000       0.06152000      -2.03517000       0.47554149       0.45822785       0.68881758
H        4.23663000      -0.22062000      -1.18654000      -0.44774576       0.45080659      -0.87434653
H        4.60475000      -0.56030000       0.91217000       0.39819300      -0.26448668      -0.75624890
O        5.12376000      -0.88135000       0.10605000      -0.26490301      -0.57597895       0.74019597
H        5.12693286      -1.89198792       0.12351000      -0.01500908       0.69219503       0.03268993
H        3.86481000       1.63934000       2.35277000      -0.02046854       0.82690496      -0.13002952
O        3.87204000       2.66640000       2.32238000       0.38927257      -0.56212842       0.77193023
H        4.27904000       2.95334000       3.19230000      -0.21719028      -0.22275256      -0.66958066
H        2.89639000       3.06668000      -1.97558000       0.78424539      -0.34960624       0.01114875
O        3.82264000       2.70147000      -2.02895000      -0.40756669       0.50749677       0.54462081
H        4.33786000       2.98956000      -1.22918000      -0.32109197      -0.11913105      -0.45040385
H        2.86934000      -0.29938000       2.24426000       0.70640867       0.27534958      -0.05343451
O        3.82913000       0.00862000       2.28816000      -0.49025541      -0.38729513       0.74620368
H        4.24120000      -0.28064000       3.14244000      -0.27593217       0.13224496      -0.56334394
81
Properties=species:S:1:pos:R:3:REF_forces_delta:R:3 REF_energy_delta=-55803.529264863915 pbc="F F F"
H       -3.76729000      -1.64575000      -2.07540000       0.23297533      -0.75792957       0.04390569
O       -3.65602000      -2.65731000      -2.03970000      -0.83230784       0.59256647       0.47939772
H       -4.30516000      -2.89464000      -1.32730000       0.48720516       0.14063829      -0.47816569
H       -3.65591000      -1.71181000       2.29500000       0.06283760      -0.63379006       0.00030107
O       -3.77727000      -2.69300000       2.31090000      -0.59378258       0.52687367       0.69527197
H       -4.25045000      -2.90238000       3.19160000       0.38297736       0.19326662      -0.67117314
H        3.79983000      -1.65276000      -2.20120000      -0.12897161      -1.09304833       0.01661199
O        3.76423000      -2.67177000      -2.15740000      -0.26844337       0.62467407       0.86559265
H        3.35783000      -2.88965000      -1.23460000       0.41940652       0.29272163      -1.04264386
H        2.96833000      -3.05272000       0.99510000      -0.36991595      -0.28248294      -0.68505398
O        2.65343000      -3.54103000       0.15700000      -0.55619762       0.36367925       0.71549195
H        1.65903000      -3.27679000       0.06600000       0.92457073      -0.20564195      -0.00996965
H       -0.43595000      -3.03495000       0.87610000       0.52152251       0.36151835      -0.89537895
O        0.04283000      -2.66189000       0.07080000      -1.04252666      -0.52560643       0.10519687
H       -0.48301000      -2.98524000      -0.73120000       0.54414637       0.30712341       0.74999298
H       -1.29570000      -4.68597000       2.27700000       0.05595367       0.67052891      -0.12593402
O       -1.25674000      -3.66168000       2.19800000      -1.08701124      -0.55940132       0.22502250
H       -2.23578000      -3.37618000       2.14830000       1.06947563      -0.28559906      -0.03010441
H       -0.69013000      -3.21014000      -2.84360000      -0.33509362      -0.37781828       0.73091347
O       -1.16440000      -3.64814000      -2.10940000      -0.47836521       0.58595145      -0.63572660
H       -2.07291000      -3.27333000      -2.12770000       0.90826764      -0.31547787      -0.06016715
H       -0.26672000      -3.01083000      -5.05797000       0.23565247       0.28787489       0.45829761
O        0.07003000      -2.59801000      -4.22410000      -0.26341233       0.56125162      -0.62594303
H       -0.00432000      -1.62188000      -4.30902000       0.04265792      -0.89185048       0.06771077
H        3.33563000      -2.87550000       3.14370000       0.21312456       0.32522817      -0.53092160
O        3.86533000      -2.50330000       2.34730000       0.44699898      -0.63181106       0.83419708
H        4.79133000      -2.87786000       2.40920000      -0.61274655       0.29477197      -0.15477967
H       -5.92265000       0.33687000       0.21570000       0.85128245       0.14442125       0.00345019
O       -4.96047000       0.69159000       0.19420000      -1.31999100       0.53837925      -0.00524558
H       -5.05953000       1.67143000       0.14630000       0.31451194      -0.60839188       0.04727522
H       -4.35829000       0.26259000      -1.35570000       0.59444558      -0.23276557      -0.65486478
O       -3.79344000       0.01007000      -2.12080000      -0.94079021       0.51525869      -0.05078868
H       -4.20606000       0.39052000      -2.98310000       0.33271919      -0.23907884       0.55900002
H       -4.25460000       0.31462000       1.63300000       0.63097285      -0.14491708       0.60713064
O       -3.64986000       0.14989000       2.40890000      -1.10686500       0.23347992       0.04570178
H       -4.13335000       0.47020000       3.18370000       0.42707389      -0.19627703      -0.49592371
H       -0.76889000       0.46082000      -1.40040000      -0.42431622       0.23947375      -0.64149159
O       -1.28775000       0.84990000      -2.17490000      -0.57516185      -0.36606083       0.54501904
H       -2.28188000       0.57175000      -2.18670000       1.02174047       0.12515511       0.09248710
H        3.02443000       4.09605000      -0.77520000      -0.27252914      -0.19671266       0.57076448
O        2.66573000       3.76385000       0.07220000      -0.50051761       0.51232284      -0.60943038
H        1.70613000       4.08555000       0.05770000       0.89634040      -0.30583894       0.03342734
H        0.06363000      -1.00162000       0.09930000      -0.01938433       0.90171103      -0.17576319
O       -0.00000000      -0.00000000      -0.00000000       0.78873058      -0.71236283       0.17252411
H        0.95233000       0.30702000       0.02080000      -0.76624664      -0.23506383      -0.04626435
H       -0.36312000       4.17915000      -0.92150000       0.30631305       0.28966934       0.75847460
O        0.05003000       4.56045000      -0.10370000      -0.79696090      -0.42794905       0.09366013
H       -0.50498000       4.28565000       0.71910000       0.46962111       0.20697420      -0.84840724
H        2.88923000       0.41156000      -5.17713000      -0.26174360       0.19067687       0.55555697
O        2.44043000       0.79994000      -4.38820000       0.79969449      -0.24923959       0.04714074
H        2.96443000       0.56480000      -3.55510000      -0.50047019       0.10030804      -0.67787514
H        2.60853000       1.96297000       0.04120000      -0.10745071      -0.92479227       0.06411977
O        2.60023000       0.95929000       0.04820000       0.46367031       0.63810638       0.68181772
H        3.12323000       0.66190000       0.89220000      -0.52068050       0.29947892      -0.72012125
H       -0.70254000       4.31555000       2.91790000      -0.36293069      -0.29183333      -0.46103387
O       -1.26720000       3.99055000       2.13860000       0.27554488      -0.48334623       0.61676731
H       -1.20672000       2.99715000       2.10600000       0.05190078       0.78532015       0.01741347
H       -1.02182000       2.42805000      -2.34830000       0.13741553       0.78912279       0.01979656
O       -0.95023000       3.41615000      -2.31190000       0.23858208      -0.58907175      -0.65555304
H       -0.43690000       3.71525000      -3.10280000      -0.34969972      -0.28090334       0.46912893
H        0.86443000       0.37375000      -4.35613000      -0.98023825      -0.26492987       0.08328354
O       -0.05186000       0.07841000      -4.35023000       0.36003767       0.58032833       0.63477732
H       -0.52750000       0.39182000      -3.51340000       0.50267732      -0.26841303      -0.72832756
H        4.69653000       0.28508000      -2.15680000      -0.50179480      -0.12924935       0.03443607
O        3.74753000       0.00175000      -2.16760000       0.35489197       0.67521310       0.74357225
H        3.38673000       0.37987000      -1.29600000       0.23896640      -0.38001265      -0.72154383
H        4.81713000       0.43056000       2.34000000      -0.64241611      -0.20112973      -0.01481003
O        3.86163000       0.14419000       2.29980000       0.85373979      -0.70981240      -0.01038922
H        3.86513000      -0.87330000       2.31880000      -0.01601910       0.88877755      -0.08829314
H       -0.62425000       0.80953000       1.39860000      -0.40808723       0.38487162       0.53392810
O       -1.17324000       1.28377000       2.10620000      -0.48283242      -0.55318845      -0.54928826
H       -2.12737000       0.92315000       2.11850000       0.96278003       0.30044692      -0.12145620
H       -0.53083165      -2.82758455       5.33350881       0.38446053       0.22368651      -0.52208235
O       -0.03106165      -2.52616455       4.53472881      -0.66000946      -0.78957523       0.09230468
H       -0.43369165      -2.98086455       3.77176881       0.38031553       0.37793543       0.47512180
H        1.47933835       0.63025545       4.34559881       0.97128056       0.51037968       0.09195835
O        2.37253835       1.05010545       4.44067881      -0.33590032      -0.72177142      -0.64785975
H        2.93623835       0.71063545       3.68880881      -0.56973958       0.35795119       0.67868277
H       -0.51445165       0.54213545       3.49453881       0.45978804      -0.28634868       0.72745697
O       -0.08536165       0.21346545       4.35851881      -0.69405533      -0.61532935      -0.60094282
H       -0.12416165      -0.80837455       4.35275881       0.06833566       1.02670496      -0.09036460
81
Properties=species:S:1:pos:R:3:REF_forces_delta:R:3 REF_energy_delta=-55803.609317350696 pbc="F F F"
H        1.24856000       2.79930000      -2.08604000       0.08871537       0.99468212       0.04102313
O        1.33731324       3.79847526      -2.12967000      -0.44860103      -0.49847983       0.66411465
H        0.85689324       4.16996526      -1.33769000       0.47191929      -0.43928722      -0.84635061
H        0.35625000       0.57070000      -5.12005000      -0.29767994      -0.12094725       0.59094387
O       -0.14087000       0.24770000      -4.31451000       0.24767013      -0.64861063      -0.93860814
H       -0.08691000      -0.74990000      -4.35575000      -0.01471552       0.79421087       0.17555118
H       -1.83915000       0.79010000      -4.50727000      -0.58863712       0.30210612       0.02679215
O       -2.72918000       1.18220000      -4.59969000       0.21275907      -0.59133438      -0.72845547
H       -3.22809000       0.77040000      -5.38350000       0.38946879       0.33303575       0.57279570
H       -0.79732000      -2.93626000      -4.31599000       0.73648237       0.25430568       0.23621076
O        0.15979000      -2.60118000      -4.25215000      -0.65215933      -0.55792089      -1.15247434
H        0.53608000      -2.88396000      -5.14403000      -0.16559265       0.24670552       0.76440478
H       -4.79462000       0.52030000      -2.13091000       0.65365225      -0.08962637      -0.03485442
O       -3.80473000       0.32850000      -2.20513000      -0.47448202       0.27216028      -0.85442295
H       -3.44858000       0.62530000      -3.11547000      -0.33954211      -0.19979490       0.92952056
H        0.79763000      -3.12748000      -2.85937000       0.42922002      -0.24507623       0.84374169
O        1.18837000      -3.49018000      -2.02317000       0.34441972       0.29162135      -0.99990537
H        2.14940000      -3.15199000      -2.06079000      -0.67516483      -0.14190487       0.12383186
H        0.81965000       0.66220000      -1.37412000       0.35035250       0.30720746      -0.60316090
O        1.27667000       1.05860000      -2.17741000      -0.64344554      -0.61863198      -0.22907218
H        0.80202000       0.79040000      -3.00192000       0.38676886       0.29654051       0.95810171
H       -3.78367000      -1.50970000      -2.25719000       0.03870586      -0.71595316       0.09673972
O       -3.85131000      -2.49949000      -2.25498000       0.37580564       0.49393328      -0.85986173
H       -3.30304000      -2.79869000      -3.03105000      -0.40763428       0.21301112       0.58873760
H        3.72348000      -0.89200000      -2.01552000      -0.11643592       0.81835737       0.06238179
O        3.71039000       0.10230000      -2.02862000      -0.64054989      -0.61782852      -0.16846242
H        2.77967000       0.41190000      -1.95227000       0.70227150      -0.20697835       0.05560396
H        4.29983000      -3.01811000      -1.17381000      -0.38142942       0.31896413      -0.36447783
O        3.79004000      -2.63304000      -1.96059000       0.80644285      -0.59438144      -0.16758970
H        4.26994000      -2.84899000      -2.82280000      -0.34455881       0.18403537       0.56525585
H        1.35878000       2.64790000       2.26045000      -0.14689390       0.72394478      -0.01471867
O        1.22871324       3.66104526       2.32635000       0.74613504      -0.43966640       0.06567939
H        2.14665324       4.03086526       2.31535000      -0.59457747      -0.32488720       0.00039221
H       -3.34798000      -2.85556000       3.01395000      -0.34010526       0.28917492      -0.49643275
O       -3.88710000      -2.51591000       2.24465000       0.43544405       0.58740886       0.57158120
H       -3.77118000      -1.53950000       2.18455000      -0.04982523      -0.91371034       0.06892678
H       -0.90087000       0.42770000      -0.10605000       0.84522578      -0.40654373       0.08340996
O       -0.00000000      -0.00000000      -0.00000000      -0.96207965      -0.47169640       0.00066129
H       -0.09739000      -0.98440000       0.17266000       0.05252525       0.92747476      -0.03082874
H        2.18279000       0.62670000       2.15825000      -0.88216530       0.36000369      -0.04999152
O        1.26345000       1.04010000       2.14695000       0.27639270      -0.63508193      -0.55685071
H        0.75621000       0.68630000       1.33375000       0.43888728       0.31674901       0.70815497
H        0.49290000       0.40830000       3.59765000      -0.38861407      -0.33947221       0.54790853
O       -0.01938000       0.06290000       4.39555000       0.73440026       0.57837617      -0.08864845
H        0.40482000       0.48050000       5.18805000      -0.18314392      -0.23024796      -0.50900394
H       -1.59624000       0.69020000       4.42505000      -0.75807343       0.32897520      -0.11476134
O       -2.52359000       1.10770000       4.39955000       0.77868363       0.42376383       0.19980082
H       -2.39611000       2.11570000       4.47015000       0.01468252      -0.67776042      -0.04095077
H        0.37407000      -2.98583000      -0.57359000      -0.49982137       0.29890115       0.89108014
O       -0.12467000      -2.68775000       0.23475000      -0.48312275      -0.53295340      -0.93070035
H       -1.11376000      -2.98992000       0.11698000       1.05899457       0.27076038       0.13150166
H       -1.06011000      -2.82961000       4.46855000       0.64274974       0.17850763       0.11078191
O       -0.08974000      -2.61099000       4.62955000      -0.72206132       0.62993996      -0.03603336
H       -0.05388000      -1.59406000       4.60825000      -0.02216667      -0.84917564      -0.03611285
H       -3.26913000       0.52920000       1.33155000      -0.29724043      -0.28326839       0.66988692
O       -3.70003000       0.22580000       2.14975000       0.72469560       0.64094851       0.01544372
H       -3.14795000       0.61030000       2.90625000      -0.43928507      -0.38687370      -0.80506518
H       -2.90228000       0.95210000      -0.98251000       0.56416070       0.28496462       0.73621592
O       -2.30288000       1.21360000      -0.20847000      -0.56703826       0.73459292      -0.53777287
H       -2.39522000       2.21700000      -0.12671000       0.13840279      -1.03317483      -0.17190210
H       -3.07064000      -3.12736000      -0.84280000       0.31483781      -0.31399583       0.90091684
O       -2.68637000      -3.49873000      -0.00371000      -0.86261032       0.49911323      -0.09028532
H       -3.20977000      -3.19210000       0.79695000       0.41115244      -0.26846852      -0.77709832
H        0.81105000      -3.11684000       3.24135000       0.47810404      -0.29297187      -0.86277163
O        1.23858000      -3.48024000       2.38525000      -0.83173500       0.45581859       0.24453037
H        0.65181000      -3.16031000       1.66025000       0.44247093      -0.21918329       0.64362044
H        4.17417000      -2.98468000       3.21325000      -0.29265265       0.18042153      -0.56391662
O        3.80121000      -2.61555000       2.36365000      -0.48141370      -0.66604200       0.50442740
H        2.87396000      -2.99322000       2.26635000       0.80853889       0.32844109       0.05737240
H        3.77592000      -0.92330000       2.33955000       0.00387598       0.96592551      -0.05003103
O        3.80394000       0.08940000       2.27715000       0.38686126      -0.64344909      -0.58096097
H        4.25507000       0.33640000       1.40365000      -0.39681272      -0.24485411       0.76908693
H        5.00789000       2.07480000      -0.00170000      -0.06570137      -0.60803121      -0.04386024
O        4.96929000       1.06660000       0.06782000      -0.35289608       0.36322687      -0.86681461
H        4.48851000       0.75370000      -0.79419000       0.46341803       0.43479471       0.87087573
H        0.12122324       5.61864526       0.12695000       0.06592059      -0.46099600      -0.00094914
O        0.12893324       4.65002526       0.06456000       0.25918129       0.33634867       0.86694214
H        0.54463324       4.28337526       0.91785000      -0.42109737       0.22822818      -0.79100332
H       -2.98014676       4.16539526       0.96005000       0.31739670      -0.17938330      -0.53941867
O       -2.49379676       3.86593526       0.11756000       0.35326084       0.64179011       0.64557175
H       -1.55714676       4.27760526       0.17705000      -0.75929116      -0.42082802      -0.06594086
78
Properties=species:S:1:pos:R:3:REF_forces_delta:R:3 REF_energy_delta=-53736.69879742815 pbc="F F F"
H       -3.65522000       0.94292000      -2.38645000       0.05154084      -1.06174301       0.15274749
O       -3.60861000      -0.09646000      -2.27511000      -0.43030893       0.72732455      -0.73134069
H       -4.13681000      -0.46656000      -3.05841000       0.30506381       0.23798203       0.46552387
H       -4.31243000      -0.60786000      -0.91616000      -0.32147369      -0.40398813       0.76275056
O       -4.78457000      -0.98722000      -0.08493000       0.21828193      -0.37614385      -0.85840745
H       -4.82142000      -1.97782000      -0.21820000       0.08565304       0.67080235       0.02367254
H       -3.75196000       0.91425000       2.09416000       0.04033169      -1.01288132       0.14937578
O       -3.62627000      -0.12556000       2.18762000      -0.52853421       0.54831274      -0.78507829
H       -4.08149000      -0.53059000       1.36375000       0.44365542       0.37866723       0.79819835
H       -0.63293000      -4.06917000      -1.57960000      -0.41452402       0.52512510      -0.83287222
O       -1.08088000      -3.62507000      -2.35626000       0.29507605       0.44003030       0.73499046
H       -1.09314000      -2.62495000      -2.17905000       0.11344683      -1.02261319      -0.08896653
H        1.67215000      -0.63922000      -4.52068000       0.96562709      -0.27114237       0.09243579
O        2.63385000      -0.92413000      -4.49119000      -0.80378493      -0.45378100      -0.14127299
H        2.64195000      -1.93011000      -4.45138000      -0.13416694       0.62702944      -0.02388044
H        3.43405000      -0.43790000      -3.00421000       0.42040099       0.36231637       0.89742592
O        3.88675000      -0.11865000      -2.17130000      -0.67232801      -0.63396525      -0.11439556
H        3.40635000      -0.49437000      -1.37859000       0.33316781       0.32434993      -0.66557504
H        3.04165000      -0.81558000       0.75673000      -0.56356138      -0.32415610      -0.65310640
O        2.46185000      -1.10955000       0.02105000       0.32951097      -0.63257071       0.55938893
H        2.34215000      -2.07452000       0.00201000       0.01909053       0.95300681       0.10017897
H       -0.38251000      -4.37021000       0.73268000       0.40171643      -0.29902031      -0.80612534
O       -0.00711000      -4.71156000      -0.15860000      -0.38787671      -0.36626013       0.82179753
H       -0.14810324      -5.70002526      -0.20890000       0.04426186       0.52048616       0.09061724
H        0.94425000      -0.27725000       0.01710000      -0.80342710       0.25526388      -0.02091345
O       -0.00000000      -0.00000000      -0.00000000       0.93160191       0.68479477      -0.01037937
H        0.05625000       1.01859000      -0.03923000      -0.01885725      -0.97233677       0.06615140
H        3.07155000      -4.34500000      -0.94419000      -0.38367062       0.32980576       0.55632323
O        2.61025000      -3.89133000      -0.17185000      -0.31798254      -0.74272183      -0.51070705
H        1.66825000      -4.27404000      -0.14864000       0.81883775       0.36190474      -0.05606931
H       -2.01684000      -0.67894000       2.32762000       0.94928701      -0.27269640      -0.05487223
O       -1.04523000      -0.99330000       2.22326000      -0.52586789       0.58130435      -0.59920059
H       -0.66669000      -0.57711000       1.35866000      -0.35394560      -0.34327772       0.73203728
H       -2.09280000      -0.71519000      -2.24581000       0.92932450      -0.30628634       0.18574653
O       -1.14552000      -1.02170000      -2.23425000      -0.42634380       0.79313940       0.34371875
H       -0.66872000      -0.61137000      -1.43005000      -0.41320768      -0.35301720      -0.61159619
H       -0.35453000      -0.41852000      -3.63197000       0.37551681       0.19684018      -0.50235309
O        0.12055000      -0.11720000      -4.43483000      -0.82486866      -0.37367939       0.00414212