57
Properties=species:S:1:pos:R:3:REF_forces_OFF23(M):R:3 REF_energy_OFF23(M)=-39544.33383778331 pbc="F F F"
H       -1.12646000      -4.59392000      -2.24403000       0.04950388       2.98398066       0.01672040
O       -1.11923000      -3.56686000      -2.27442000       0.27463308      -2.57527835       0.64726284
H       -0.71223000      -3.27992000      -1.40450000      -0.42107829      -0.41317986      -0.96925025
H        0.03314000      -0.86042000      -4.51389000       0.00930488       2.59894096      -0.26035761
O        0.11572000       0.16193000      -4.53231000      -1.63686005      -1.28669786      -2.40848862
H       -0.44864000       0.51089000      -5.33769000       1.71597092      -1.48822587       2.42026165
H       -1.95822000       4.01359000      -2.28279000       0.61660034      -0.50332785       0.34692389
O       -1.06164000       3.62449000      -2.17308000       0.36658117       2.07913391      -3.81902189
H       -0.60313000       3.97319000      -3.06744000      -1.25199711      -1.33855685       3.14473553
H        3.34495000       0.30417000      -3.02349000       0.90906564      -0.38125666       1.60342070
O        3.73729000       0.03264000      -2.14297000       1.91381450       0.91083453      -1.90513789
H        4.71136000       0.34027000      -2.14537000      -2.48231895      -0.71848996      -0.18119189
H       -1.20674000       1.84828000      -2.21968000       0.14163558      -0.66914029      -0.18964719
O       -1.17522000       0.87800000      -2.31777000       0.62772640       0.11922191      -0.98622347
H       -0.68525000       0.66501000      -3.18162000      -0.74251307       0.34209349       1.45426899
H        3.21415000      -3.22295000       0.65510000      -0.06102976       0.15984375      -1.10129935
O        2.73313000      -3.51844000      -0.14308000       0.60849538       0.68273842      -1.32964187
H        3.09014000      -3.09447000      -0.99400000      -0.49255472      -0.73963323       2.47508867
H        0.83417000      -2.90683000       4.21580000      -1.85829624       0.62595854       0.16212190
O       -0.10384000      -2.56287000       4.28630000       1.66922895      -1.12861281      -0.51052907
H       -0.59500000      -2.96185000       3.49240000       0.39193906       0.36836989       0.60610180
H       -2.26368000      -3.25527000       2.11440000       2.43140005      -0.49808620       0.03666103
O       -1.28965000      -3.52366000       2.21370000      -2.14799359       0.54184465      -0.52135910
H       -0.79545000      -3.16188000       1.43680000      -0.46555723      -0.14521896       0.09621677
H        1.03999000      -3.05054000      -0.00890000      -1.70765045       0.83419240      -0.12449831
O        0.08272000      -2.69852000      -0.03641000       1.79502034      -0.10222697       0.42810548
H        0.12977000      -1.70297000      -0.04020000      -0.08046239      -0.57866589       0.07742519
H       -0.74929000       0.57476000       2.95710000      -0.36036158      -0.00146694      -0.49347095
O       -1.27342000       0.86066000       2.15400000       0.43534242       0.56879966       0.42623443
H       -1.29217000       1.84477000       2.19990000       0.04081779      -0.42930579      -0.07833835
H        1.68689000       4.04829000      -0.11649000       2.22439386      -1.12235616       0.04493570
O        2.64777000       3.71879000      -0.16394000      -1.59149383      -0.24034614      -0.26371545
H        2.60311000       2.72329000      -0.17679000      -0.13418839       1.29392531       0.27714892
H       -0.42584000       0.38611000       5.12140000       1.24354703      -1.31967053      -2.28194823
O        0.02150000       0.00732000       4.27990000      -1.06602381       0.80667964       2.30382645
H       -0.05828000      -1.00393000       4.30520000      -0.07900692       0.79586153       0.13481548
H        3.04150000       0.63833000      -0.81461000      -0.97320811      -0.09615348       0.71029270
O        2.58218000       0.91257000       0.01840000      -1.18693423      -0.30468460      -0.32632214
H        1.64116000       0.51886000       0.10040000       1.51796220       0.58750344      -0.66303826
H       -0.68174000       3.97529000       1.51360000      -0.30339366      -0.23541781       0.93298522
O       -1.21827000       3.65009000       2.28510000       1.25616417       0.73273900       1.83234590
H       -0.75333000       3.91999000       3.15580000      -1.06093247      -0.62391865      -2.56166173
H       -0.37788000       4.17249000      -0.79196000       0.63174854       0.40550308       1.23666269
O        0.05720000       4.46359000       0.07140000      -0.69051757       2.86762999      -1.20489446
H        0.10041000       5.49019000       0.02260000      -0.15755436      -2.77529500       0.13675955
H       -0.43607000       0.31462000      -0.86028000       0.44554329      -0.37302765       1.54246509
O       -0.00000000      -0.00000000      -0.00000000      -0.53408572       0.55878263      -0.55065906
H       -0.47365000       0.35898000       0.81980000       0.17350843      -0.27536025      -0.94436486
H        3.19743000       0.26493000       2.86830000       0.58851603      -0.18694908      -1.24824484
O        3.76228000       0.01241000       2.10320000      -0.76794196       0.33401634      -0.02125517
H        3.34966000       0.39286000       1.24090000       0.35970225      -0.48177239       1.86145450
H       -2.87277000       0.12238000      -2.27639000      -0.26181863      -0.54931861      -0.05203063
O       -3.80297000      -0.15235000      -2.36262000      -0.37600480      -2.45416871      -0.20200670
H       -3.86167000      -1.17755000      -2.37901000       0.61306689       2.97492727       0.13178585
H       -2.94687000       0.28742000       2.06720000      -0.75175123      -0.22470778       0.04255035
O       -3.89587000       0.00409000       2.05640000      -0.27578048       1.02862042       2.24481659
H       -4.25667000       0.38221000       2.92800000       0.86807652      -0.94162425      -2.17579692
60
Properties=species:S:1:pos:R:3:REF_forces_OFF23(M):R:3 REF_energy_OFF23(M)=-41626.51936830496 pbc="F F F"
H       -2.69694000      -2.55303000       0.01252000      -0.25297266      -1.08810397       0.10877517
O       -2.83817000      -3.55481000       0.07616000      -1.04256723       0.00250695      -2.08673127
H       -3.33287000      -3.85970000      -0.75269000       1.16737484       0.90038953       1.96098649
H        2.21837000      -3.99323000       2.25632000      -2.32309874       0.89996446      -0.20740203
O        1.24257000      -3.73316000       2.21772000       1.78000860       0.64294123      -0.13022370
H        1.16207000      -2.73165000       2.06734000       0.52244666      -1.41575739       0.50583107
H       -1.22906000      -4.10124000      -0.03702000       1.85019677      -0.65406672       0.45193090
O       -0.25841000      -4.44296000      -0.01637000      -0.91937135       0.94359845       1.05565541
H        0.14753000      -4.22327000       0.88817000      -0.70224427      -0.38917777      -1.59378141
H        0.64620000      -3.85490000      -1.31944000      -0.13295529      -0.14071404       0.11303046
O        1.14597000      -3.55348000      -2.11822000      -0.30909415      -0.02986431      -0.86528538
H        0.74334000      -4.00818000      -2.88118000       0.36424063       0.27437178       0.79244506
H       -1.65839000       3.20888000      -0.03074000      -0.54984739       0.28858169       0.07743340
O       -2.59303000       3.51548000      -0.00075000       0.42422482       2.83222316      -0.13925106
H       -2.51118000       4.54358000       0.01214000      -0.26009752      -3.03023647      -0.01437827
H       -3.83850000       1.01122000      -1.94490000      -0.69433877      -2.56425888       0.11526966
O       -3.89248000      -0.01097000      -1.97712000      -0.68141522       1.89918327      -0.39053643
H       -4.82086000      -0.34471000      -1.93476000       1.06981334       1.03710634       0.01736369
H       -4.90705000      -0.45299000       2.23513000       2.13166554       0.80974212       0.37998943
O       -3.99289000      -0.06296000       2.40914000      -1.71811633      -0.94325999      -1.08556692
H       -3.45762000      -0.32409000       1.61774000      -0.53837481       0.10103271       0.82345997
H       -3.01934000      -0.60048000      -0.66274000       0.42905880      -0.29899624       0.90588687
O       -2.54850000      -0.94782000       0.13315000       1.03746457       1.08985707      -0.99226258
H       -1.61621000      -0.54233000       0.04877000      -1.10784978      -0.81795078       0.32512095
H        0.43956000      -0.19043000      -0.87758000      -0.40998617      -0.17058222       0.76708012
O       -0.00000000      -0.00000000      -0.00000000      -0.13932552       2.41750168      -0.92985031
H       -0.07373000       1.03058000       0.02474000       0.26423868      -1.95506278      -0.09207353
H        1.97217000      -0.57155000       2.19357000      -1.19159789      -0.65877484       0.30900359
O        1.03697000      -0.95175000       2.20969000       1.53646012       0.76238446      -0.33344390
H        0.63733000      -0.50665000       1.42818000      -0.12235149      -0.44723203       0.00401454
H        0.66838000       3.13528000       3.03224000       0.70409403       0.54755709      -1.47479216
O        1.11657000       3.50078000       2.21446000       0.42400917      -0.75538340       1.80566316
H        2.05617000       3.23678000       2.31254000      -0.92636559       0.21341754      -0.00522795
H        2.65637000      -0.39706000      -2.30735000       0.18734811       0.24573426       0.08601000
O        3.54957000       0.02279000      -2.21227000       1.37660858      -0.62590294      -1.41750778
H        4.11327000      -0.31668000      -2.96414000      -1.18922877       0.64748289       1.31318633
H        4.15787000      -0.39203000       3.07885000      -1.12889677       0.96631493      -1.61760589
O        3.63947000       0.03658000       2.32820000       2.04180574      -1.03280903       0.36178181
H        4.20427000      -0.13265000       1.49971000      -0.89874590       0.06908062       1.14396337
H        0.48973000       3.06168000       0.77947000      -0.84622800      -0.53332347      -0.91898853
O        0.00038000       2.73658000      -0.04351000       0.75951951       0.15103781       1.21598232
H        0.47189000       3.11348000      -0.79279000      -0.00372609       0.10250241      -0.49214552
H        1.35907000       4.76818000      -2.32286000      -0.04304658      -1.54746643       0.01125264
O        1.25267000       3.78098000      -2.30175000       1.95845516       0.70562002       0.38546128
H        2.17207000       3.40918000      -2.13396000      -1.71923644       0.78370282      -0.49265228
H        0.66258000      -0.48518000      -3.15841000       0.55809902      -0.32309352       1.34004096
O        1.09167000      -0.81385000      -2.29443000      -0.68876020      -1.21175390      -1.47036285
H        1.05287000      -1.83569000      -2.30019000       0.01338564       1.31701203       0.19087671
H        4.92237000      -1.79454000       0.00005000      -0.07595142       2.91800150      -0.15141110
O        4.93697000      -0.76809000      -0.00212000      -0.09718639      -2.52932918      -0.26561684
H        4.48257000      -0.47711000      -0.83975000       0.05722904      -0.32969722       0.62158734
H        0.26785000      -0.40576000       5.30197000      -1.37889493       0.58075031      -2.70040622
O       -0.29323000      -0.12881000       4.48721000       2.32681674      -1.07846644       0.07084730
H        0.17890000      -0.44478000       3.59231000      -0.88407758       0.56758608       2.80067488
H       -3.07756835      -0.71269545      -5.01994881       1.02242343      -0.33353223       1.36209281
O       -2.47282835      -0.87742545      -4.24404881      -0.95653063       0.32986705      -1.61516956
H       -2.95631835      -0.55711545      -3.46924881      -0.07803684      -0.03672892       0.12305510
H        0.55278165      -0.21778545      -5.25434881      -1.69586081       1.03151067       1.49426736
O        0.00379165       0.25645455      -4.54674881       0.00109850      -1.41323528      -1.29643274
H       -0.95033835      -0.10416545      -4.53444881       1.69829146       0.27619745      -0.26091397
66
Properties=species:S:1:pos:R:3:REF_forces_OFF23(M):R:3 REF_energy_OFF23(M)=-45788.36955343265 pbc="F F F"
H        0.89841000      -0.30115000       3.27828000      -1.36848645       0.59282293       1.75654142
O        0.40641321      -0.03452985       4.12937523      -0.32650813      -1.51490334      -1.64283060
H       -0.57988679      -0.30790985       4.01701523       1.93072327       0.67065939       0.11957757
H        1.61070000      -2.64974000      -2.11230000       0.00833007      -1.78510579       0.10920811
O        1.74210000      -3.64411000      -2.09260000      -0.91887350       0.57226950       1.33560795
H        1.18090000      -4.01728000      -1.30190000       1.30365158       1.19756671      -2.05790522
H        0.83200000      -4.15590000       0.75020000      -0.61951315      -0.35631500      -1.06349887
O        0.35390000      -4.48594000      -0.05080000      -0.98201708       0.45051199       1.51031823
H       -0.56580000      -4.09909000       0.03010000       1.65079121      -0.67266859      -0.14982195
H       -2.69976000      -3.93224000       0.96200000       1.33731338       0.41450402      -2.31844351
O       -2.14590000      -3.65307000       0.14700000      -2.17856029      -0.69501587       1.76665240
H       -2.57149000      -4.02357000      -0.64730000       0.10034954       0.08430829       0.57306930
H        1.04350000      -3.75236000       3.01610000       1.20832264       0.31116364      -1.23092251
O        1.54690000      -3.48553000       2.19760000       1.70686610      -1.34715348       1.28943204
H        2.48100000      -3.91068000       2.20810000      -2.57360076       0.87727666       0.32383272
H       -3.02942000      -0.38605000      -1.34720000      -0.36751118       0.17870392      -0.48655336
O       -3.40238000      -0.01692000      -2.19680000      -2.08857565      -0.82610258       0.70101284
H       -4.32963000      -0.39459000      -2.29410000       1.92795982       0.76593801       0.24129213
H        2.53220000       3.41573000      -2.34040000      -1.79675846       0.63780373       0.18878506
O        1.58370000       3.71703000      -2.23490000       0.99041570      -1.28386761      -2.09095666
H        1.12210000       3.35153000      -3.05500000       0.94107251       0.69338462       1.62679650
H        0.66800000       3.17113000      -0.88660000      -0.89057716      -0.19886326       0.51058836
O        0.11080000       2.74953000      -0.18550000      -0.27055925      -0.04794837      -0.42545071
H       -0.80490000       3.15823000      -0.11430000       0.80013400       0.02718344      -0.22472951
H       -2.39463000      -1.91781000       0.20990000      -0.11957751       1.26652238      -0.34586067
O       -2.47396000      -0.92940000       0.11780000       1.23949890      -1.04631287       0.31859778
H       -1.50320000      -0.62317000       0.15280000      -0.80446584       0.14975075      -0.09154464
H       -2.77049000       3.34943000      -0.82180000       0.43453933       0.95199005       1.34421524
O       -2.38082000       3.83443000      -0.00190000      -1.17654206      -1.95498448       0.11348237
H       -2.80778000       3.39373000       0.79130000       0.75392154       0.87263058      -1.52754273
H        0.86090000      -0.39628000      -5.26499000      -1.70270583       1.38255493       2.12143381
O        0.31170000       0.08329000      -4.53347000       2.68706734      -1.40635937      -1.29320450
H        0.72760000      -0.26408000      -3.68880000      -0.45404306       0.25171906      -0.78681426
H        0.05990000       0.98753000      -0.10120000      -0.13771439      -0.60063709       0.30258851
O       -0.00000000      -0.00000000      -0.00000000       0.71588210       0.09931892       0.23809033
H        0.70730000      -0.31656000       0.66030000      -1.03430722       0.65507916      -0.64863827
H       -3.42767000       1.67533000      -2.22090000       0.21932767       1.49096776      -0.45565300
O       -3.39965000       2.68803000      -2.28330000       0.96456951      -0.58716848      -1.64572636
H       -2.94852000       2.93503000      -3.15680000      -1.09251307      -0.86936480       2.08165017
H       -1.25870000      -0.53132000      -4.36878000       0.15640970       0.08124578      -0.15820178
O       -2.15190000      -0.89034000      -4.38548000      -1.21121563      -0.02703624       1.28606633
H       -2.56427000      -0.62430000      -3.50970000       0.85975462      -0.40572369      -1.72911728
H        2.33210000      -0.41423000      -2.15360000      -1.93094919      -0.95613458       0.13259267
O        1.41070000      -0.85132000      -2.19380000       1.09212161       1.35009931       0.61994297
H        0.86670000      -0.55011000      -1.40730000       0.71199752      -0.21469132      -0.84380425
H        2.60440000      -0.38975000       1.86130000      -1.25235662      -0.46885649      -0.23711451
O        1.68350000      -0.79760000       1.79170000       1.47825318      -0.72220630       0.33096391
H        1.77900000      -1.77819000       1.92580000      -0.22347232       1.05420782      -0.25175006
H        2.38140000       3.19533000       1.90780000      -1.69554865       0.57589123      -0.08175211
O        1.44560000       3.52503000       1.91740000       1.62625179      -0.63942769      -0.50889773
H        0.96010000       3.10883000       1.14910000       0.45588497       0.44381295       0.60806418
H       -3.38193000      -0.19800000       1.36390000      -0.13562064       0.17839014       0.21585232
O       -3.80134000       0.20048000       2.16420000      -1.83070861      -1.15193501      -0.04174922
H       -4.68011000      -0.27436000       2.27090000       1.70759312       1.08786042      -0.25839809
H        0.33331321       1.60856015       4.16618523      -0.02785656       1.46812408       0.02769102
O        0.26031321       2.61186015       4.21444523       0.38359087      -0.52499637      -0.53198815
H        0.69901321       2.97406015       3.40620523      -0.55127325      -0.52268070       0.90049975
H       -2.80243679      -0.37701985       3.28975523       0.95870073      -0.42159558       1.03343664
O       -2.13418679      -0.68746985       3.99935523      -1.10916037      -2.07720665      -0.54203741
H       -2.19158679      -1.69050985       4.07368523      -0.07864002       2.27576808      -0.20225904
H        4.55076000      -0.25693000      -1.54650000      -0.86101306       0.83523596      -1.37856655
O        4.01164000       0.08272000      -2.31580000       0.95122962       0.60496817       1.09399876
H        4.12756000       1.05913000      -2.37590000       0.12185925      -1.35165821       0.28291981
H        4.39536000       0.01326000       2.84720000      -0.33278773       0.39912440      -1.20369807
O        4.09233000       0.26990000       1.93870000       0.87236200       2.25444603       1.36884486
H        4.13869000       1.28893000       1.95640000      -0.15273248      -2.52688499      -0.01821445
57
Properties=species:S:1:pos:R:3:REF_forces_OFF23(M):R:3 REF_energy_OFF23(M)=-39544.726914520994 pbc="F F F"
H       -1.22352000       1.89480000       2.19077000       0.09134518      -1.23950651       0.27215198
O       -1.29910000       0.90420000       2.23297000       0.75661886       0.74822139       0.31928598
H       -0.74869000       0.57273000       3.01806000      -0.66994003       0.80800956      -0.74559445
H        2.41799000       2.57625000       0.10421000      -0.03252641       2.38458768       0.34585773
O        2.47774000       3.58220000       0.28185000      -0.32686275      -1.76057753      -0.30311132
H        1.58300000       3.96489000       0.11822000       0.60165003      -0.38921911       0.06552565
H       -0.49584000       0.46050000       5.22688000       1.12369402      -1.26200763      -2.18011529
O       -0.01169000       0.13059000       4.39319000      -0.92596553       0.89510703       1.72802324
H       -0.16916324      -0.83590526       4.25475000       0.05190910       0.00148096       0.60937287
H        3.08349000       0.53557000      -0.83282000      -1.01425338       0.40282859       1.83644219
O        2.54767000       0.85673000      -0.01303000       0.88540781      -0.96235535      -0.73327683
H        2.98848000       0.56698000       0.83194000      -0.13560768       0.22266227      -1.15393954
H       -2.08183000       4.00195000       2.24559000       2.56740326      -0.54366465       0.51105127
O       -1.10710000       3.69079000       2.26953000      -1.39196705       1.29853753       1.80401577
H       -0.61493000       4.08335000       3.06758000      -1.53353901      -0.73908839      -1.79112771
H       -0.46843000       4.36372000       0.86573000       0.74124067       0.25374230      -1.56855428
O       -0.03910000       4.60465000      -0.00101000      -1.03391213      -0.34890077       0.61204347
H       -0.54501000       4.13585000      -0.71512000       0.46875596       0.44144936       0.58743467
H       -0.53659000       0.39825000       0.75270000       1.05355821      -0.42505286      -0.62896030
O       -0.00000000      -0.00000000      -0.00000000      -0.17554418       0.29520559       0.64262820
H        0.96238000       0.27542000       0.02596000      -0.92434463       0.15270358       0.12758617
H        3.35069000       0.47445000       3.01205000       1.52482647      -0.93728135      -2.17222552
O        3.84331000       0.09485000       2.19213000       0.27362485       1.25908238       2.40009017
H        4.78114000       0.43527000       2.23455000      -1.74970591      -0.42642092       0.11608691
H       -0.24291321       0.18339985      -3.58611523       0.47247657      -0.68047120      -1.71312142
O        0.24414679      -0.16890015      -4.41361523      -1.21175614       1.14095145      -0.47640173
H       -0.23949321       0.18656985      -5.21861523       0.91974090      -0.66690827       1.90104177
H       -1.12980321       2.47132985      -2.11881523      -0.03895614       0.82589193      -0.33538299
O       -1.16929321       3.46249985      -2.14071523       0.50728908      -0.56689348      -0.85999392
H       -0.58440321       3.75951985      -2.87341523      -0.68487797      -0.55979416       0.89294934
H        4.79789679       0.31977985      -2.03171523      -1.70179955      -0.68628905      -0.36403975
O        3.89076679      -0.10003015      -2.08651523       0.99434379       1.20367397      -1.30227996
H        3.45756679       0.24713985      -2.91861523       0.81624094      -0.58492828       1.33766393
H       -0.85073321       0.35702985      -1.49281523       0.50927892      -0.05939817       0.24179360
O       -1.24183321       0.57111985      -2.35561523      -2.04416863      -0.41216210       0.59136117
H       -2.18062321       0.17058985      -2.26891523       1.67049634       0.92738963      -0.44408705
H        3.08092676      -3.26960526      -0.72541000      -1.10979321      -0.55810603       1.67585838
O        2.54027676      -3.56910526       0.07126000       2.49679503       1.38126216       0.51550232
H        3.05419676      -3.22250526       0.88207000      -1.21430424      -0.82504013      -2.07807431
H        0.72908676      -2.93580526       4.18190000      -1.07102614       0.21382743      -0.31971764
O       -0.16094324      -2.54370526       4.08948000       0.34355812      -0.26532967      -0.30099808
H       -0.65985324      -2.95550526       3.30567000       0.79989859       0.17540608       0.67804849
H       -2.36369324      -3.22370526       1.97783000       2.04931714      -0.99535092       0.24821860
O       -1.42274324      -3.59120526       2.03854000      -1.79271332       1.64730147      -1.52421362
H       -0.99025324      -3.20330526       1.18707000      -0.29832091      -0.75165374       1.20085318
H       -0.04203324      -1.68880526       0.00211000       0.34433924      -0.73400908      -0.12202471
O       -0.02683324      -2.68890526      -0.06045000       1.53299626      -0.12143882       0.66007245
H        0.93245676      -3.04020526       0.08717000      -2.00244333       1.04113579      -0.47058925
H       -0.72635644      -3.11283541      -3.11861523      -1.11382823      -0.98066032       1.78770939
O       -1.22640644      -3.58413541      -2.37601523       1.34083198       1.28442462      -0.96835502
H       -0.78529644      -3.28083541      -1.53481523      -0.39190219      -0.24938315      -1.05369624
H       -2.85970000       0.26644000       2.29503000      -0.46395163      -0.76459984      -0.36677605
O       -3.77660000      -0.07467000       2.17028000      -0.34018700      -0.57787722       0.06817098
H       -3.80990324      -1.03390526       1.97885000       0.50925199       1.24795310       0.24020313
H       -4.31841321       0.20731985      -3.01251523       1.07118381      -1.34630543       2.02333311
O       -3.86751321      -0.19737015      -2.19051523      -1.16138191      -1.50220255      -1.94856416
H       -3.93531644      -1.21823541      -2.25681523       0.03750613       2.67004083      -0.11515497
57
Properties=species:S:1:pos:R:3:REF_forces_OFF23(M):R:3 REF_energy_OFF23(M)=-39543.88745712392 pbc="F F F"
H       -0.49790000      -0.29445000      -5.19891000       1.08177373       1.36475435       2.32916886
O       -0.06420000       0.18827000      -4.40624000      -1.69300597      -1.53714631      -1.43752651
H       -0.58850000      -0.08016000      -3.57885000       0.78775499       0.38989440      -1.35145495
H       -0.77770000      -0.35049000      -1.34040000      -0.26757657      -0.22329486      -0.43116812
O       -1.26280000      -0.53988000      -2.19237000      -0.49190991      -1.98498877       0.02973029
H       -1.40140000      -1.54119000      -2.26677000       0.81882649       2.00693929       0.46538107
H       -2.84950000      -0.18655000      -2.34097000      -1.71465145       0.97133137       0.34069682
O       -3.83860000       0.07390000      -2.28409000       1.22391729       1.52136067      -0.04900994
H       -3.83240000       1.08036000      -2.29220000       0.16760238      -2.16134034      -0.04801568
H       -0.78060000      -3.64072000      -3.05055000      -0.49182375       0.31115839       0.76266777
O       -1.15960000      -3.27365000      -2.22342000      -0.89125459      -0.73867818      -0.82244589
H       -2.08980000      -3.58508000      -2.15299000       0.99801891       0.13780273      -0.27492129
H       -0.28280000      -4.07667000       0.67929000       0.46895865      -0.28731702      -0.73991597
O        0.22320000      -4.37998000      -0.13270000      -1.52927851       0.78652084      -0.38740662
H       -0.32270000      -3.97092000      -0.87335000       1.27736083      -0.72701741       1.23249609
H       -0.50680000      -0.31886000       0.81906000       0.70610589       0.36441636      -1.15112739
O       -0.00000000      -0.00000000      -0.00000000       0.92044586      -1.03534287       1.37243794
H        0.92730000      -0.45263000       0.01548000      -1.50627893       0.85465949       0.03433093
H       -0.68030000       3.45445000      -1.34283000      -0.37727022      -0.26163561      -1.36399750
O       -1.17980000       3.70136000      -2.16658000       0.84307181      -0.28435625      -1.62861682
H       -0.74420000       3.39416000      -3.03301000      -0.76410322       0.49234883       2.64794701
H        0.86670000       3.07919000       0.02658000      -0.83376708      -0.60182714       0.20884297
O       -0.06400000       2.74059000       0.09558000       0.82579412      -1.01612921      -0.04143678
H       -0.02810000       1.73195000       0.03219000       0.06579735       1.23551510       0.02888550
H       -1.07880000      -0.51510000       3.04719000      -0.98881946      -0.80557993      -2.68162596
O       -1.45020000      -0.85920000       2.11622000      -0.20383347       1.09025351       1.98673827
H       -2.40040000      -0.52660000       2.04300000       1.10924319      -0.22657397       0.09856938
H       -0.25560000       1.06000000       4.36659000      -0.27224060      -1.85423865      -0.14202182
O       -0.31960000       0.06472000       4.25549000      -0.61836052       1.48319017       2.09910741
H       -0.71530000      -0.29573000       5.09909000       0.71452807       0.73280175      -1.28329045
H       -0.77570000      -3.73185000       2.76579000      -1.27551195       0.81649414      -2.30376914
O       -1.23430000      -3.47755000       1.88744000       0.93354909       0.34129035       2.45674674
H       -1.35480000      -2.46462000       1.92442000       0.31770636      -1.37080659       0.16406506
H       -4.38997000      -0.14674000       1.20387000       0.81920023       0.35359854       1.29062054
O       -3.89950000       0.12845000       2.03041000      -1.16660878       2.09854072      -1.66411584
H       -3.91360000       1.14469000       1.96160000       0.19113193      -2.32064401       0.18153855
H       -0.86690000       3.27260000       1.40109000      -0.74503920       0.80470043       1.55729910
O       -1.37090000       3.72409000       2.18246000       1.44292165      -1.44946807       0.90960535
H       -0.94650000       3.41545000       3.04749000      -0.84135114       0.72987019      -2.22821195
H        4.70092000      -0.21625000      -2.16563000      -3.17540781       1.01287618       0.10584312