81
Properties=species:S:1:pos:R:3:REF_forces_OFF23(M):R:3 REF_energy_OFF23(M)=-56198.48203134167 pbc="F F F"
H       -0.80934000       3.87998000      -2.88091000      -0.64302408      -0.39705077       1.03265167
O       -1.23123000       3.58732000      -2.03954000       0.88817231      -0.15764270      -0.95983886
H       -1.23432000       2.58518000      -2.10163000      -0.11210812       0.47868508       0.01552324
H       -4.19236000       0.20592000      -1.21504000       0.89861203      -0.57479842      -1.14485426
O       -3.67335000      -0.11513000      -2.02116000      -0.51305056      -0.97000530       0.83939155
H       -3.67017714      -1.12576792      -2.00370000      -0.22598642       1.57440626       0.06151217
H       -0.77865000       0.51499000      -1.44363000      -0.27608054       0.25817911      -0.48174703
O       -1.22549000       0.88014000      -2.25146000      -0.33433328      -0.38440543       0.59137625
H       -2.14685000       0.47368000      -2.22722000       0.43300428       0.43214636       0.02813641
H       -0.35766000       0.23142000      -3.57071000       0.82329404      -0.75993409      -1.09066548
O        0.16587000      -0.22563000      -4.31059000      -0.86708960       0.48919550       0.97651782
H        1.03097000       0.21544000      -4.36714000       0.07344837      -0.06319509      -0.00138336
H       -0.43185000       0.36474000       0.83907000       0.47151982      -0.34902811      -0.93693462
O       -0.00000000      -0.00000000      -0.00000000      -0.69152485      -1.07051551       1.38531850
H       -0.07624714      -0.99676792       0.12723000       0.25241986       1.25617092      -0.46772841
H        0.12856000       5.38653000       0.14805000       0.08620354      -2.01282536      -0.40695539
O        0.19879000       4.38652000       0.07679000      -0.57662418       1.76788144      -0.52607281
H       -0.29952000       4.09692000      -0.76762000       0.25682963       0.31912323       0.74754566
H       -5.92777000       0.46684000       0.11705000       2.24288627       0.63441092       0.39976066
O       -4.96798000       0.77484000       0.16095000      -1.99772034      -0.48687398       0.29426990
H       -4.55591000       0.48558000       1.01523000      -0.54023907      -0.05637264      -0.78302739
H        3.17255000       0.48151000      -3.67865000      -0.22068871       0.24995012      -0.50405883
O        2.71481000       0.82355000      -4.50354000       0.12954308       2.21039271       0.68632307
H        2.69043000       1.82950000      -4.39703000       0.15569447      -2.39047809      -0.25919907
H        3.33394000       0.22327000      -1.52573000       0.18543382      -0.55578750      -0.15771882
O        3.86881000      -0.10629000      -2.27753000       0.16591616      -1.23773784      -0.22793756
H        3.88440286      -1.11686792      -2.27546000      -0.32465050       1.69315346       0.34861223
H        1.86068000       3.77290000       0.16829000       1.47604406      -0.67309945       0.25698070
O        2.78876000       3.36714000       0.28234000      -0.27968270       1.90995723      -2.30882945
H        3.29555000       3.71821000      -0.53213000      -1.18198346      -0.90576244       2.10056276
H        2.58496000       1.76144000       0.03405000      -0.03470009      -0.53597264      -0.04420712
O        2.51241000       0.78333000      -0.10251000      -0.00971504       0.25211648       0.54817714
H        1.55540000       0.54544000      -0.03477000       0.18218686      -0.07161332      -0.15990877
H       -0.59169000       3.77653000       3.12469000      -0.27538927      -0.05245721      -1.13621467
O       -1.07271000       3.48104000       2.32651000       0.31060218       0.61886826      -0.39173825
H       -0.71570000       3.90501000       1.47559000      -0.05073767      -0.70016325       1.63670607
H       -1.19811000       1.83743000       2.30335000       0.16277016      -1.58485739      -0.16283911
O       -1.19653000       0.81057000       2.22660000      -0.22230060       1.40022634       0.87539682
H       -0.77802000       0.45954000       3.06709000       0.08500377       0.14921823      -0.40681253
H       -4.11629000       0.12231000       3.12119000       0.78706510      -0.37331160      -1.09272976
O       -3.65092000      -0.19811000       2.30705000      -0.30791965       0.95623981       1.50903436
H       -2.76464000       0.29482000       2.29254000      -0.28474531      -0.59131772      -0.01757412
H        1.06505000       0.16336000       4.54639000      -1.88182107      -0.43580568      -0.25124210
O        0.07593000      -0.11787000       4.50049000       1.40127558      -1.18974491       0.10031037
H        0.11511286      -1.12596792       4.61149000      -0.19259349       1.64129255      -0.23857416
H        2.57336000       1.72053000       4.34179000       0.09220304      -1.82753206      -0.06663508
O        2.56391000       0.72429000       4.36909000       0.54975252       1.77386505      -0.25339688
H        2.99578000       0.40016000       3.53669000      -0.38150598       0.26677411       0.40032117
H        3.26099000       0.09127000       1.23966000       0.85586510      -0.32544887       1.29155659
O        3.70784000      -0.23205000       2.12123000       0.72171782       1.44093411      -1.16804740
H        4.63141000       0.12694000       2.15434000      -1.42791695      -0.45380486      -0.39264939
H        1.01294286      -3.20236792      -4.35893000      -1.11403992       0.36581602       0.05329975
O        0.07830286      -2.89576792      -4.32894000       1.18056574       0.74776363       0.38978582
H        0.16015286      -1.86766792      -4.31605000      -0.26374926      -1.09501876       0.00343176
H       -0.82026714      -3.49716792      -2.92006000       0.17231819       0.07789716      -0.29091870
O       -1.35412714      -3.77636792      -2.13627000       0.33539166      -2.20592325       0.28271165
H       -1.33731714      -4.77876792      -2.08771000       0.04555731       2.02216383      -0.40556103
H       -2.87046714      -3.22076792      -2.11128000      -1.33976670       0.65883631       0.21869224
O       -3.81030714      -2.84396792      -2.01568000      -0.11256380      -1.68419078      -2.59710475
H       -4.26778714      -3.17646792      -2.87670000       1.15534299       1.04977335       2.43604915
H       -0.48152714      -3.17036792       0.91706000       0.14941585       0.59653735      -0.40531243
O       -0.08119714      -2.76186792       0.10435000      -0.31446976      -1.20878595      -0.28898919
H       -0.53555714      -3.21316792      -0.65923000       0.41232459       0.83930079       0.59701592
H        3.33971286      -3.27596792      -1.29595000       0.43391732       0.47521637      -0.96067219
O        3.78790286      -2.91046792      -2.11373000       0.75482930      -0.68954111       0.77906877
H        4.72750286      -3.17446792      -2.01565000      -0.99911588       0.27913890      -0.13427863
H        2.48606286      -4.87376792       0.15146000      -0.03436746       2.48159374      -0.25176112
O        2.50737286      -3.86516792       0.02940000      -0.92875082      -2.47280427       0.15264933
H        1.56937286      -3.53526792       0.09358000       0.55290179      -0.12366278      -0.05366108
H       -2.20065714      -3.33536792       2.35310000       0.76427213      -0.47500259       0.09564074
O       -1.23977714      -3.66486792       2.30565000      -0.95022659      -1.54689402       0.07012492
H       -1.28443714      -4.66036792       2.29280000      -0.12399818       1.69847632       0.15236470
H        1.09622286      -3.21096792       4.40849000      -1.13829908       0.47617191       0.19749973
O        0.18019286      -2.90156792       4.61119000       0.11483508      -1.15354759      -1.67468743
H       -0.37410714      -3.22086792       3.81689000       1.15096957       0.72707179       1.49027488
H       -4.26542714      -3.21116792       1.67763000       0.83028449       0.81597029       1.83207675
O       -3.83034714      -2.92006792       2.54099000      -0.55292669       0.99392422      -1.92712442
H       -3.78713714      -1.89346792       2.49219000      -0.02307225      -1.79106815      -0.20116494
H        3.89420286      -1.88516792       2.23401000      -0.54815955      -2.38578675      -0.33512493
O        3.79950286      -2.90236792       2.23393000      -0.34191810       1.04032689      -1.14555118
H        3.38242286      -3.18086792       1.35515000       0.89916569       0.90060207       1.83476150
81
Properties=species:S:1:pos:R:3:REF_forces_OFF23(M):R:3 REF_energy_OFF23(M)=-56196.43782910092 pbc="F F F"
H        3.74622000      -1.74255000      -2.25295000      -0.25171744      -1.36317731       0.02339724
O        3.60499000      -2.74433000      -2.18931000      -0.96708384       0.10394471      -1.98766758
H        3.11029000      -3.04922000      -3.01816000       1.10387362       0.93975470       1.82378984
H        2.88078000      -3.28143000      -0.81819000       0.17947879       0.15504732      -0.11408041
O        2.45889000      -3.57409000       0.02318000      -0.38488112      -2.38646489      -0.63225245
H        2.45580000      -4.57623000      -0.03891000       0.04232128       1.94290128       0.22252876
H        0.87040000      -2.96335000      -0.00275000       0.17036110      -0.24705023       0.48727805
O       -0.06212000      -2.69741000       0.07914000      -0.71655525       0.01401100       0.15552018
H       -0.48619000      -3.11961000       0.87409000       0.70114284       0.41075272      -0.49637447
H       -1.24218000      -4.75585000       2.28828000       0.03514128       2.79634574      -0.07470940
O       -1.23495000      -3.72879000       2.25789000      -0.00528022      -2.85328980       0.69849861
H       -0.82795000      -3.44185000       3.12781000       0.06454827       0.01556602      -0.36165013
H       -2.21060000      -3.32851000      -2.04007000       1.75080898      -0.45654553       0.11777772
O       -1.28435000      -3.69372000      -2.09344000      -0.67250078       0.31930623       0.17530252
H       -0.76913000      -3.40563000      -1.29367000      -0.70288668       0.09539053      -0.48189062
H       -0.53534000      -3.07004000      -3.48745000       0.53620944       0.02284646      -0.96404387
O       -0.04613000      -2.79766000      -4.33332000      -1.95491381      -1.73987977      -1.43216551
H       -0.55031000      -3.25727000      -5.11132000       1.51933855       1.35171166       2.45497881
H        3.81868000      -1.77488000       2.21077000      -0.15404110      -1.76888904      -0.15168679
O        3.88891000      -2.77489000       2.13951000      -0.78762191       0.43465584      -1.39196219
H        3.39060000      -3.06449000       1.29510000       1.11474537       0.91670856       2.08911979
H       -2.24807000       0.52317000      -2.18189000       1.04692312       0.60686381       0.06147394
O       -1.30132000       0.87553000      -2.15176000      -1.08766618      -0.34326929      -0.06468212
H       -1.35278000       1.84977000      -2.18042000       0.03269581      -0.39609164       0.16903223
H        2.95156000       3.72456000      -0.85734000      -0.70699589      -0.54117609       1.22590417
O        2.41770000       3.44536000      -0.07355000       0.99829609      -0.37236407      -1.24034660
H        2.43451000       2.44296000      -0.02499000       0.02534748       0.86472236       0.02408893
H       -0.08258000      -1.02235000       0.01842000       0.08332045       1.58421400      -0.04405476
O       -0.00000000      -0.00000000      -0.00000000      -1.38721310      -1.14458659      -1.64568936
H       -0.56436000       0.34896000      -0.80538000       1.21615704      -0.82043115       1.52502550
H        0.90136000       4.00096000      -0.04856000      -1.19438501       0.63444738       0.48278675
O       -0.03848000       4.37776000       0.04704000       0.10338842      -1.21158190      -2.01702887
H       -0.49596000       4.04526000      -0.81398000       1.04201042       0.90426803       2.49369654
H        2.60466000       1.82170000      -4.21037000      -0.67449142      -2.92405807      -0.17616786
O        2.55068000       0.79951000      -4.24259000       0.95436757       2.49018219       0.40625650
H        1.62230000       0.46577000      -4.20023000      -0.32205539       0.41491930      -0.24613622
H        1.53611000       0.35749000      -0.03034000       0.42201639       0.49906029       0.47415868
O        2.45027000       0.74752000       0.14367000       0.29301375      -0.51295410      -1.38910974
H        2.98554000       0.48639000      -0.64773000      -0.44654709       0.06534273       0.76145885
H       -2.07394000       3.85166000       2.24952000       0.94070452      -0.51519461       0.40247389
O       -1.17736000       3.46256000       2.35923000      -0.27056829       1.29119631      -2.37735974
H       -0.71885000       3.81126000       1.46487000      -0.71509446      -0.80326649       1.92838434
H       -2.24066000       3.93856000      -2.17285000       2.67138604      -0.88410175       0.12187723
O       -1.27892000       3.56876000      -2.11779000      -2.18682939       1.62428559      -2.20359537
H       -0.79502000       3.95306000      -2.90472000      -0.93520613      -0.59176747       1.27064694
H       -0.00761000      -1.12260000      -4.36706000       0.02517174       0.74822063       0.07575937
O        0.04743000      -0.12895000      -4.36983000      -1.03789864       0.39978856       1.58744565
H       -0.51352000       0.21610000      -3.58195000       1.29225397      -0.94040763      -1.60667653
H        3.42382000       0.21000000      -2.92821000      -0.23911398       0.05990564      -0.21568775
O        3.89466000      -0.13734000      -2.13232000       2.48727905       1.44338177      -0.30337189
H        4.82695000       0.26815000      -2.21670000      -2.20560749      -1.15879489       0.30715217
H        3.22923000       0.14224000       1.50882000       0.29676756       0.00348150       0.81043606
O        3.62157000      -0.12929000       2.38934000       2.70527215       1.08018691      -1.15289770
H        4.59564000       0.17834000       2.38694000      -2.55151258      -0.69126101      -0.09946729
H       -1.32246000       1.68635000       2.31263000       0.17426257       0.16560960      -0.19416755
O       -1.29094000       0.71607000       2.21454000       0.57007543      -0.54412019      -0.70777559
H       -0.80097000       0.50308000       1.35069000      -0.65457750       0.40300099       1.33099482
H        0.92427000      -3.21247000       4.52341000      -2.32584195       1.17216131      -0.09225400
O       -0.03300000      -2.86045000       4.49590000       2.25262327      -0.59801300      -0.13984777
H        0.01405000      -1.86490000       4.49211000       0.05189853      -0.61203704       0.08245432
H        2.92578000       0.47640000       3.71770000      -1.11142831      -0.02681449       0.97533327
O        2.46646000       0.75064000       4.55071000      -1.40327653      -0.44859143       0.35912693
H        1.52544000       0.35693000       4.63271000       2.48497613       0.84411025      -0.77081959
H       -0.55179000       0.15269000       3.67203000       0.19707530       0.03740466       1.05326166
O       -0.11572000      -0.16193000       4.53231000      -1.55004407       0.56069494       1.04073145
H       -0.58937000       0.19705000       5.35211000       0.84069339      -0.64697289      -2.30023846
H       -4.31629000      -2.86374000      -3.00674000       0.81241406       0.04840913       1.35273521
O       -3.76379000      -2.65101000      -2.20508000      -2.34690604      -1.02901650       0.44240302
H       -4.25499000      -3.03418000      -1.40459000       0.87587626       0.89503514      -1.73402057
H       -4.43279000      -3.32604000       2.96865000       1.03673598       0.54506252      -1.15436630
O       -3.88049000      -2.97336000       2.22218000       0.33208141      -1.27998362       1.31214736
H       -2.91719000      -3.22995000       2.39630000      -1.50519139       0.30276960      -0.30621940
H       -4.59809000       0.41845000       0.81338000      -0.71136048       0.56426985      -0.80650242
O       -5.11649000       0.84706000       0.06273000       1.80413808      -0.71958177      -1.16333074
H       -4.55169000       0.67783000      -0.76576000      -1.44975053       0.40164848       2.13496425
H       -3.83359000      -0.98406000      -2.26542000       0.02149682       1.94864995       0.07299098
O       -3.81899000       0.04239000      -2.26759000      -0.60700184      -1.34491605      -1.85041652
H       -4.27339000       0.33337000      -3.10522000       0.70182435      -0.53795605       1.42232719
H       -2.98849000      -0.03955000       2.25592000      -0.16242513      -0.23567308      -0.08655163
O       -3.91869000      -0.31428000       2.16969000      -0.10308737      -1.71277144       0.11054274
H       -3.97739000      -1.33948000       2.15330000       0.47904565       2.28081466       0.11100331
87
Properties=species:S:1:pos:R:3:REF_forces_OFF23(M):R:3 REF_energy_OFF23(M)=-60359.56290082645 pbc="F F F"
H        0.78761000      -3.05068000       3.46378000      -1.32729872       0.56760936       1.76625729
O        0.29561321      -2.78405985       4.31487523      -0.36534347      -1.21271555      -1.66167681
H       -0.69068679      -3.05743985       4.20251523       1.89330755       0.63547939       0.13311577
H        1.58380000       2.70370000      -1.96930000      -0.35127940       1.98724800       0.09356821
O        1.52440324       3.71557526      -1.98440000      -0.49721995      -1.08250844       0.93459898
H        1.02620324       4.01328526      -1.14990000       1.10975039      -0.80091768      -1.61011935
H        1.23400000       2.49480000       2.23900000       0.07177002       2.36007253      -0.08563448
O        1.30180324       3.51566526       2.30530000      -0.77717792      -1.21823098      -1.17936061
H        0.85090324       3.92035526       1.48330000       1.09535096      -1.16324027       1.84684495
H       -3.14022000      -3.13558000      -1.16170000      -0.56983055       0.32629692      -0.93902700
O       -3.51318000      -2.76645000      -2.01130000      -1.69670228      -1.17417862       0.34101171
H       -4.44043000      -3.14412000      -2.10860000       2.02909161       0.76698181       0.27557452
H        0.14070000      -1.00480000      -4.28759000       0.21363316       1.56429443      -0.09534198
O        0.17650000       0.01400000      -4.29317000      -0.91416767      -1.14794911       0.33967753
H       -0.77730000       0.30320000      -4.23374000       1.31574514      -0.35640346      -0.11799527
H        2.42140000       0.66620000      -2.15490000      -1.46297908       0.37633334       0.25709272
O        1.47290000       0.96750000      -2.04940000       1.05944121      -1.10666987      -1.06272471
H        1.01130000       0.60200000      -2.86950000       0.23889444       0.38421787       0.63106769
H        0.55720000       0.42160000      -0.70110000      -0.66394677      -0.13261453       0.15546189
O       -0.00000000      -0.00000000      -0.00000000      -0.37441267      -0.08174574      -0.14536093
H       -0.91570000       0.40870000       0.07120000       0.78428251      -0.02039827      -0.25349836
H       -2.50543000      -4.66734000       0.39540000      -0.27302947       1.58953009      -0.24222480
O       -2.58476000      -3.67893000       0.30330000       1.24839940      -1.81400014       0.58266402
H       -1.61400000      -3.37270000       0.33830000      -0.57926283       0.24410460      -0.12464093
H       -2.88129000       0.59990000      -0.63630000       0.46204728       0.99433717       1.12297022
O       -2.49162000       1.08490000       0.18360000      -0.59010876      -1.38204049      -0.81990777
H       -2.91858000       0.64420000       0.97680000       0.13850087       0.47636203      -0.31598795
H        0.75010000      -3.14581000      -5.07949000      -1.66558385       1.49794618       2.10265896
O        0.20090000      -2.66624000      -4.34797000       2.08609016      -1.96322283      -1.50620426
H        0.61680000      -3.01361000      -3.50330000      -0.42327632       0.22187170      -0.46031760
H       -0.05090000      -1.76200000       0.08430000      -0.12387810      -0.42324284       0.21195503
O       -0.11080000      -2.74953000       0.18550000       0.61405970      -0.04353764       0.48492032
H        0.59650000      -3.06609000       0.84580000      -1.09965617       0.72156649      -0.73203899
H       -3.22949000       0.40470000       3.20310000      -0.48083842      -0.80126302      -0.83048863
O       -3.70085000       0.05990000       2.38000000       0.20397990      -0.75404568       0.25389722
H       -3.80348000      -0.94520000       2.36900000       0.31454157       2.20955185       0.50512678
H       -3.53847000      -1.07420000      -2.03540000       0.17077865       1.69143807      -0.32663659
O       -3.51045000      -0.06150000      -2.09780000       0.57078937      -1.11632525      -1.01975230
H       -3.05932000       0.18550000      -2.97130000      -0.82403530      -0.43713087       1.79801444
H       -2.30650000       1.92390000      -4.37665000      -0.03849783      -1.25464478       0.39877777
O       -2.34510000       0.91570000      -4.30713000      -1.64536546       0.41626927      -3.15745784
H       -2.82588000       0.60280000      -5.16914000       1.45390564       0.91833957       2.52873157
H        2.22130000      -3.16376000      -1.96810000      -1.77506976      -0.82212143       0.07292883
O        1.29990000      -3.60085000      -2.00830000       0.85693638       0.99530226       0.66617190
H        0.75590000      -3.29964000      -1.22180000       0.88932415      -0.23534692      -1.10012509
H        2.49360000      -3.13928000       2.04680000      -0.64401284      -0.31058904      -0.18933641
O        1.57270000      -3.54713000       1.97720000       1.04308742      -1.61087532       0.41301895
H        1.66820000      -4.52772000       2.11130000      -0.01369098       1.61099559      -0.28933350
H        2.27060000       0.44580000       2.09330000      -1.39358231       0.55043780      -0.08085749
O        1.33480000       0.77550000       2.10290000       0.78688928      -1.01059109      -0.39770354
H        0.84930000       0.35930000       1.33460000       0.32750752       0.55263983       0.57327095
H       -3.49273000      -2.94753000       1.54940000      -0.02740918       0.16010864       0.08824375
O       -3.91214000      -2.54905000       2.34970000      -1.93379213      -1.92158617      -0.18879224
H       -4.79091000      -3.02389000       2.45640000       1.61323015       1.10287065      -0.21334327
H        0.22251321      -1.14096985       4.35168523      -0.06416878       1.15928770       0.07783857
O        0.14951321      -0.13766985       4.39994523       0.14274832      -0.38550878      -0.49597639
H        0.58821321       0.22453015       3.59170523      -0.35113729      -0.41362670       0.62174706
H       -2.36298679       1.98933015       4.47983523       0.50483773      -2.28325126       0.02894320
O       -2.35998679       0.98423015       4.51706523      -0.18420768       1.86485237      -0.12749142
H       -1.44488679       0.61863015       4.40270523      -0.04897045       0.41768757       0.22916515
H       -2.91323679      -3.12654985       3.47525523       1.14788387      -0.53326873       1.28365969
O       -2.24498679      -3.43699985       4.18485523      -1.20021086      -1.98533626      -0.70785826
H       -2.30238679      -4.44003985       4.25918523      -0.04752072       2.20780410      -0.21180614
H       -2.46099676       2.87689526       0.25540000      -0.09645531       1.01423036      -0.49008938
O       -2.36060676       3.87321526       0.13740000      -1.18157767      -0.21892523      -1.50991864
H       -2.91249676       4.15753526      -0.66300000       1.27812629      -1.03614646       1.90611549
H       -0.69689676       4.30070526       0.10370000       0.41882119       0.26028598       0.08650003
O        0.25410324       4.59960526       0.15320000      -1.22091542       2.60428496      -0.16468642
H        0.21950324       5.61138526       0.17800000       0.05861154      -2.34344587      -0.01830607
H       -2.63675676       3.95153526      -5.06004000       0.94030918      -0.49590614       1.81619929
O       -2.23349676       3.61866526      -4.19810000       0.35320903       1.16584092      -1.89353274
H       -1.30289676       3.96596526      -4.18825000      -1.22618418      -0.50864859       0.05161589
H        4.43996000      -3.00646000      -1.36100000      -0.98889247       0.82856460      -1.44399844
O        3.90084000      -2.66681000      -2.13030000       1.04575141      -0.24140843       1.20946172
H        4.01676000      -1.69040000      -2.19040000      -0.05693439      -0.73985911       0.28493256
H        6.19170000       0.53930000       0.05010000      -2.00391444       1.15380323       0.02918856
O        5.26435000       0.95680000       0.02460000       2.74184839       1.63641141       0.15373690
H        5.39183000       1.96480000       0.09520000      -0.11584680      -2.26023488      -0.31391512
H        4.44296000       0.60020000       1.37720000      -0.87663176      -0.94705630       0.99264957
O        3.94291000       0.12890000       2.11980000       1.97220963       1.27243585       0.84250372
H        4.38402000       0.43220000       2.96100000      -0.93704074      -0.35139541      -1.24323290
H        4.51881000       0.37830000      -3.04340000      -0.36661532      -0.17387864       0.42775890
O        4.08791000       0.07490000      -2.22520000       1.51598176       0.88358410       0.40355004
H        4.63999000       0.45940000      -1.46870000      -1.22247460      -0.61740998      -1.27700981
H        4.28456000      -2.73627000       3.03270000      -0.39202157       0.26800702      -1.34205843
O        3.98153000      -2.47963000       2.12420000       0.71091194       0.74456686       1.56544545
H        4.02789000      -1.46060000       2.14190000      -0.30941611      -1.47040962      -0.20286493
84
Properties=species:S:1:pos:R:3:REF_forces_OFF23(M):R:3 REF_energy_OFF23(M)=-58278.871129315725 pbc="F F F"
H       -0.43452000       1.67640000      -4.22595000       0.10114304       1.46635412       0.50143398
O       -0.27704676       2.64289526      -4.08751000      -1.02470995      -0.45747637       0.53264705
H       -0.76119676       2.97280526      -3.25382000       0.69978506      -0.71344641      -1.28415997
H        3.55144000       1.58570000      -1.87757000       0.22072672       1.29010415       0.04880604
O        3.64019324       2.58487526      -1.92120000      -0.41760503      -0.72003644       0.85783848
H        3.15977324       2.95636526      -1.12922000       0.75706276      -0.81669023      -1.19658385
H        2.65913000      -0.64290000      -4.91158000      -0.78146573      -0.44301093       1.32072512
O        2.16201000      -0.96590000      -4.10604000       0.57879553      -1.48531696      -1.95528454
H        2.21597000      -1.96350000      -4.14728000       0.02055565       1.74687698       0.04051398
H        0.46373000      -0.42350000      -4.29880000      -0.05226007       0.07725149      -0.33635982
O       -0.42630000      -0.03140000      -4.39122000      -1.47958004      -1.50062247      -1.65099284
H       -0.92521000      -0.44320000      -5.17503000       1.51443922       0.91035102       1.83200066
H       -2.49174000      -0.69330000      -1.92244000       1.21614246       0.17200108      -0.49677755
O       -1.50185000      -0.88510000      -1.99666000      -0.52029394       0.07390759      -1.38167261
H       -1.14570000      -0.58830000      -2.90700000      -1.00695481      -0.21470702       1.69923616
H        3.12253000      -0.55140000      -1.16565000       0.44315475       0.34026352      -1.32554233
O        3.57955000      -0.15500000      -1.96894000      -0.56205467      -0.63092881       0.29110956
H        3.10490000      -0.42320000      -2.79345000       0.37165012       0.30741971       1.47577331
H       -1.48079000      -2.72330000      -2.04872000      -0.03101995      -0.58309514       0.04593049
O       -1.54843000      -3.71309000      -2.04651000       1.03510756       0.20072384      -1.59333911
H       -1.00016000      -4.01229000      -2.82258000      -1.03318812       0.52027701       1.34024447
H        3.66166000       1.43430000       2.46892000      -0.49506346       1.42060982      -0.00380199
O        3.53159324       2.44744526       2.53482000       1.66920435      -0.60484700      -0.22116065
H        4.44953324       2.81726526       2.52382000      -1.29128630      -0.48568514       0.07701672
H       -1.04510000      -4.06916000       3.22242000      -0.97751682       0.97418012      -1.42487923
O       -1.58422000      -3.72951000       2.45312000       0.83840863      -0.64280332       1.19879439
H       -1.46830000      -2.75310000       2.39302000       0.09656891      -0.27229141       0.42493023
H        1.40201000      -0.78590000       0.10242000       0.48880198      -0.32765228       0.11878964
O        2.30288000      -1.21360000       0.20847000      -0.28803714      -0.28562783       0.56286082
H        2.20549000      -2.19800000       0.38113000      -0.05508451       0.78312327      -0.26277534
H        4.48567000      -0.58690000       2.36672000      -2.10021354       0.71111241      -0.37553211
O        3.56633000      -0.17350000       2.35542000       1.53635410      -1.23193965      -0.49072354