81
Properties=species:S:1:pos:R:3:REF_forces_OFF23(M):R:3 REF_energy_OFF23(M)=-56197.157580502884 pbc="F F F"
H       -3.22946000      -0.28471000      -1.55144000      -0.66942210       0.42886064      -1.27172903
O       -3.68720000       0.05733000      -2.37633000       0.31225103       1.34670194       1.32520123
H       -3.71158000       1.06328000      -2.26982000      -0.06810390      -1.79198785      -0.33290510
H       -0.95680000       3.11758000      -4.25841000       1.68494357      -0.77044173      -0.20943465
O        0.00570000       2.86812000      -4.33984000      -1.63060065       0.26160812       0.22822360
H        0.07420000       1.88178000      -4.26217000      -0.31119921       0.73807864      -0.19395291
H        0.79070000       3.53145000      -2.94225000       0.70749119       0.00964466       0.80110571
O        1.34320000       3.74418000      -2.14059000      -1.00439010      -0.41292462       0.57027968
H        0.85200000       3.36101000      -1.34010000       0.69585979       0.47929000      -1.51833513
H        0.63390000       2.95579000       0.73444000      -0.55261367      -0.46660643      -0.73074551
O        0.12700000       2.62744000      -0.07026000       0.09884282      -0.61932485       1.47228834
H        0.14120000       1.60823000      -0.02328000      -0.02440700       1.25326702      -0.26099715
H       -3.06807000      -0.54295000       0.60148000       0.12594632      -0.50706593      -0.17730128
O       -2.53320000      -0.87251000      -0.15032000       0.23212625      -1.16476217       0.28575870
H       -2.51760714      -1.88308792      -0.14825000      -0.33439500       1.44453940       0.28333286
H       -1.43060000       3.21244000       0.05534000      -0.36089207       0.21519645      -0.39889674
O       -2.40640000       3.47251000       0.01674000      -0.14915355       2.18004704       0.13648035
H       -2.48690000       4.47402000      -0.13364000       0.65785119      -2.43429646       0.40916996
H        0.62820000      -0.19682000      -3.61359000      -0.06077649      -0.11250326      -0.13007532
O        0.17830000       0.20374000      -4.39884000       1.43638555      -0.81978999      -1.75030685
H        0.63930000      -0.15145000      -5.21995000      -0.82574575       0.78957197       1.84440904
H        0.38460000      -0.44926000      -0.83149000      -0.11260919       0.90340678       0.85059374
O       -0.00000000      -0.00000000      -0.00000000      -0.71583570      -1.04434506      -0.80131353
H       -0.99030000      -0.19486000      -0.05052000       1.15587339      -0.03319781       0.08201017
H       -4.54133000       3.00668000       2.29550000       2.30536025      -0.93123116       0.36683767
O       -3.61325000       2.60092000       2.40955000      -1.43865253       1.77419739      -1.56996919
H       -3.10646000       2.95199000       1.59508000      -0.75123111      -0.51972720       1.10381560
H       -4.87803000       3.10443000      -2.23800000       2.84619123      -0.98351088       0.26032512
O       -3.90738000       2.76271000      -2.21735000      -1.98942863       1.54026543       1.32943560
H       -3.50144000       2.98240000      -1.31281000      -0.73893228      -0.28560851      -1.63030959
H       -1.40050000      -0.33639000      -4.60785000      -3.27037373      -0.64234063       0.46777275
O       -2.40050000      -0.63604000      -4.65248000       1.43723740       0.85072908       0.70621283
H       -2.93195000      -0.32455000      -3.83621000       1.50674108      -0.49588639      -1.32449234
H        2.22200000      -0.53267000      -2.18368000      -0.63055135      -0.43520521       0.15550744
O        1.26530000      -0.87793000      -2.21838000       0.58166488      -0.81896252       0.27883778
H        1.25379286      -1.89088792      -2.16538000       0.28481646       1.38123354      -0.29430540
H        0.73650000      -0.50135000       3.07381000       0.28408744      -0.18841719      -0.62119915
O        1.28830000      -0.82637000       2.31705000      -0.26327197       0.08034630      -0.07176410
H        0.82930000      -0.57553000       1.47473000       0.00929305       0.04831951       0.23825997
H        0.67420000       3.06915000       3.03314000       1.08328438       0.61974847      -1.19221805
O        1.22650000       3.42183000       2.28667000       0.52726579      -0.66911205       1.04803310
H        2.18980000       3.16524000       2.46079000      -1.34923184       0.30871814      -0.50222133
H       -3.81705000       0.99522000       2.16126000      -0.04784112      -0.27301928       0.04524945
O       -3.88960000       0.01711000       2.02470000      -1.58648979      -0.21056363      -0.12714765
H       -4.84661000      -0.22078000       2.09244000       1.31585276       0.40272412      -0.14059650
H        0.33150000       2.84537000       5.34210000      -0.96194848      -0.23563739      -1.62915547
O       -0.13540000       2.63656000       4.47742000      -0.92837262       0.73619929       2.20628337
H       -1.07250000       2.95625000       4.58487000       1.35241702      -0.35693330      -0.12157552
H        0.27980000      -0.31606000       5.27500000      -0.96444726       0.72604969      -1.56785634
O       -0.17010000      -0.04824000       4.42083000       1.11266615       1.35431741       1.43763508
H       -0.24530000       0.98195000       4.39045000       0.39588664      -2.11912318       0.36600899
H       -3.14102000      -0.67495000       3.36687000       1.53779133      -0.77034986       2.35837883
O       -2.69417000      -0.99827000       4.24844000      -0.35340313       0.90480268      -1.82950109
H       -1.77060000      -0.63928000       4.28155000      -1.40880807      -0.54492773      -0.32644817
H        0.78629286      -3.93038792      -2.94310000       0.02453664       0.12703029       0.71382161
O        1.17429286      -3.55188792      -2.13947000      -0.28686639      -0.28646596       0.15786073
H        0.68139286      -3.85738792      -1.33250000       0.32680487      -0.00543118      -1.06408849
H       -0.16870714      -5.47418792       0.13389000       0.30009300       2.83382229      -0.23815385
O       -0.11680714      -4.44918792       0.04895000       0.68304254      -2.47487144       1.84283592
H        0.34609286      -4.12818792       0.90594000      -0.36182537      -0.51962215      -1.12726074
H       -3.06229714      -4.04218792       0.83126000       0.73079118       0.83355487      -1.56650398
O       -2.61410714      -3.67668792       0.01348000      -0.89923423      -0.58931453       1.73236557
H       -1.67450714      -3.94068792       0.11156000      -0.25142708       0.03328211      -0.21624511
H        1.21789286      -2.62458792       2.38263000      -0.10550366      -0.34336674       0.25336956
O        1.24139286      -3.60938792       2.34105000      -1.31070937      -1.03310825       1.35974529
H        0.74509286      -4.00438792       3.13361000       1.20527502       1.35102454      -1.78624887
H        3.79318000       1.03888000      -2.10818000       0.13745483      -0.06971771       0.25402915
O        3.79033000       0.06152000      -2.03517000      -0.08017648      -0.75459531       0.54706868
H        4.23663000      -0.22062000      -1.18654000      -0.35794175       0.49659333      -1.18145936
H        4.60475000      -0.56030000       0.91217000       0.91065124      -0.76957700      -1.15106979
O        5.12376000      -0.88135000       0.10605000      -0.51590365      -1.81898080       1.13841298
H        5.12693286      -1.89198792       0.12351000      -0.11804138       2.37072092       0.08802994
H        3.86481000       1.63934000       2.35277000       0.07211129       1.86894586      -0.19580671
O        3.87204000       2.66640000       2.32238000       0.67793574      -0.94480901       1.99739174
H        4.27904000       2.95334000       3.19230000      -0.63269719      -0.55938970      -1.76223124
H        2.89639000       3.06668000      -1.97558000       0.43800450       0.06482968      -0.09001675
O        3.82264000       2.70147000      -2.02895000       0.63477886       0.66111268       1.26780366
H        4.33786000       2.98956000      -1.22918000      -1.11941008      -0.34972949      -1.31505071
H        2.86934000      -0.29938000       2.24426000       0.61123978       0.09815071       0.44061385
O        3.82913000       0.00862000       2.28816000      -0.03282254      -0.52830018       1.31668752
H        4.24120000      -0.28064000       3.14244000      -0.86515901       0.18815071      -1.34859448
81
Properties=species:S:1:pos:R:3:REF_forces_OFF23(M):R:3 REF_energy_OFF23(M)=-56196.45484988106 pbc="F F F"
H       -3.76729000      -1.64575000      -2.07540000       0.57291619      -1.90078645      -0.19622166
O       -3.65602000      -2.65731000      -2.03970000      -1.99749545       1.58016225       1.28763352
H       -4.30516000      -2.89464000      -1.32730000       1.14885677      -0.03465699      -1.11254109
H       -3.65591000      -1.71181000       2.29500000      -0.08042843      -0.62944718       0.30604493
O       -3.77727000      -2.69300000       2.31090000      -1.18741179       0.04069613       2.00636912
H       -4.25045000      -2.90238000       3.19160000       1.25611888       0.63888379      -2.26769035
H        3.79983000      -1.65276000      -2.20120000      -0.31298001      -2.60160655       0.21198693
O        3.76423000      -2.67177000      -2.15740000      -0.43170577       1.48975835       1.63688384
H        3.35783000      -2.88965000      -1.23460000       0.86987465       0.37761243      -2.11898369
H        2.96833000      -3.05272000       0.99510000      -0.82433842      -1.24566214      -2.23772040
O        2.65343000      -3.54103000       0.15700000      -1.50041505       1.46920352       1.90269924
H        1.65903000      -3.27679000       0.06600000       2.06970599      -0.51719276       0.14790374
H       -0.43595000      -3.03495000       0.87610000       0.75105250       0.43499878      -1.31333883
O        0.04283000      -2.66189000       0.07080000      -1.27635165      -0.48658428       0.66250747
H       -0.48301000      -2.98524000      -0.73120000       0.59662267      -0.01458681       0.33376119
H       -1.29570000      -4.68597000       2.27700000       0.19378872       2.77981548      -0.36829094
O       -1.25674000      -3.66168000       2.19800000      -1.65322903      -2.58104401       0.53578835
H       -2.23578000      -3.37618000       2.14830000       1.40612710      -0.32880108       0.21674962
H       -0.69013000      -3.21014000      -2.84360000       0.07911087      -0.17409258      -0.10445362
O       -1.16440000      -3.64814000      -2.10940000      -0.41882082       0.38051095       0.45428613
H       -2.07291000      -3.27333000      -2.12770000       0.56476467      -0.35572323      -0.01119957
H       -0.26672000      -3.01083000      -5.05797000       0.53317317       0.83405123       1.27119070
O        0.07003000      -2.59801000      -4.22410000      -0.42515474      -0.87210166      -1.30137955
H       -0.00432000      -1.62188000      -4.30902000      -0.02766179       0.18598052      -0.19183594
H        3.33563000      -2.87550000       3.14370000       1.50387330       0.92312611      -1.93746102
O        3.86533000      -2.50330000       2.34730000       0.35839422      -1.52350932       2.57173220
H        4.79133000      -2.87786000       2.40920000      -1.70264545       0.45715092      -0.03927371
H       -5.92265000       0.33687000       0.21570000       2.34602563       0.95120257      -0.04002416
O       -4.96047000       0.69159000       0.19420000      -3.19598896       0.28204146      -0.19184410
H       -5.05953000       1.67143000       0.14630000       0.13064947      -0.93722721       0.10036382
H       -4.35829000       0.26259000      -1.35570000       0.46567793       0.06597996      -0.46872570
O       -3.79344000       0.01007000      -2.12080000      -1.74074544       1.24950410      -2.40376836
H       -4.20606000       0.39052000      -2.98310000       0.97032055      -1.03525546       2.41846044
H       -4.25460000       0.31462000       1.63300000       0.86427136      -0.06403245       0.75548651
O       -3.64986000       0.14989000       2.40890000      -1.10519866      -0.01345255      -0.25296442
H       -4.13335000       0.47020000       3.18370000       0.37758228      -0.08771926      -0.14153427
H       -0.76889000       0.46082000      -1.40040000      -0.90361089       0.29665465      -0.62324644
O       -1.28775000       0.84990000      -2.17490000      -1.53500889      -0.73047153       0.58837761
H       -2.28188000       0.57175000      -2.18670000       2.65666437       0.34627380       0.53574406
H        3.02443000       4.09605000      -0.77520000      -0.29292054      -0.31078031       0.86727545
O        2.66573000       3.76385000       0.07220000      -0.53100718       0.33224165      -0.97716333
H        1.70613000       4.08555000       0.05770000       0.61595292      -0.27088172       0.01703950
H        0.06363000      -1.00162000       0.09930000      -0.22411059       0.71474074      -0.33197147
O       -0.00000000      -0.00000000      -0.00000000       1.27275998      -0.62661379       0.40338622
H        0.95233000       0.30702000       0.02080000      -0.84988798      -0.10605529      -0.13534945
H       -0.36312000       4.17915000      -0.92150000       0.22655143       0.11733918       0.83554774
O        0.05003000       4.56045000      -0.10370000      -0.72278869      -0.59659415       0.92919780
H       -0.50498000       4.28565000       0.71910000       0.98461494       0.69060722      -1.68455808
H        2.88923000       0.41156000      -5.17713000      -0.48004853       0.42402644       1.39134159
O        2.44043000       0.79994000      -4.38820000       1.58263532      -0.27497226      -0.18769262
H        2.96443000       0.56480000      -3.55510000      -0.68725199       0.00716313      -1.39391742
H        2.60853000       1.96297000       0.04120000      -0.07289539      -0.74801794       0.16069719
O        2.60023000       0.95929000       0.04820000       1.11352444       0.30095351       1.42513544
H        3.12323000       0.66190000       0.89220000      -1.16520695       0.76876281      -1.53927811
H       -0.70254000       4.31555000       2.91790000      -1.34625093      -1.10351479      -1.92205219
O       -1.26720000       3.99055000       2.13860000       1.08326384       0.23384376       1.86397379
H       -1.20672000       2.99715000       2.10600000       0.14875417       0.68252227       0.41011617
H       -1.02182000       2.42805000      -2.34830000       0.06754151       0.44108355       0.07863498
O       -0.95023000       3.41615000      -2.31190000       0.67623631       0.50410027      -1.53220802
H       -0.43690000       3.71525000      -3.10280000      -0.80708059      -0.63577456       1.15934650
H        0.86443000       0.37375000      -4.35613000       0.35901975       0.26036894       0.25499147
O       -0.05186000       0.07841000      -4.35023000      -1.68476869      -0.17716992       0.67681023
H       -0.52750000       0.39182000      -3.51340000       1.00216954      -0.43069721      -1.29993487
H        4.69653000       0.28508000      -2.15680000      -1.28574143      -0.45495232      -0.13261410
O        3.74753000       0.00175000      -2.16760000       1.42300218       1.68838277       1.08291333
H        3.38673000       0.37987000      -1.29600000      -0.00916825      -0.43178552      -0.85773203
H        4.81713000       0.43056000       2.34000000      -1.68362906      -0.51407764      -0.00583298
O        3.86163000       0.14419000       2.29980000       1.97500246      -0.98462036      -0.33761325
H        3.86513000      -0.87330000       2.31880000       0.14856736       1.64440121      -0.03841470
H       -0.62425000       0.80953000       1.39860000      -1.18759760       0.51301321       0.61251846
O       -1.17324000       1.28377000       2.10620000      -1.08494818      -0.98719935      -0.74154446
H       -2.12737000       0.92315000       2.11850000       2.18297300       0.49761342      -0.21181707
H       -0.53083165      -2.82758455       5.33350881       0.74172716       0.43820267      -1.18840539
O       -0.03106165      -2.52616455       4.53472881      -0.73894615      -0.81172921       0.98049873
H       -0.43369165      -2.98086455       3.77176881       0.01617520       0.08209723       0.11063438
H        1.47933835       0.63025545       4.34559881       0.57908899       0.48945614       0.11207512
O        2.37253835       1.05010545       4.44067881       0.89817771      -0.67579060      -1.09300667
H        2.93623835       0.71063545       3.68880881      -1.20969943       0.68390904       1.39861248
H       -0.51445165       0.54213545       3.49453881       0.86685310      -0.55135353       1.65954384
O       -0.08536165       0.21346545       4.35851881      -1.35010866      -1.67383947      -1.39476884
H       -0.12416165      -0.80837455       4.35275881       0.05308542       2.20193732      -0.04588695
81
Properties=species:S:1:pos:R:3:REF_forces_OFF23(M):R:3 REF_energy_OFF23(M)=-56197.436355677695 pbc="F F F"
H        1.24856000       2.79930000      -2.08604000       0.17171107       1.71661938       0.07843987
O        1.33731324       3.79847526      -2.12967000      -0.53802005      -0.77431902       0.65367646
H        0.85689324       4.16996526      -1.33769000       0.78853877      -0.91074371      -1.27430174
H        0.35625000       0.57070000      -5.12005000      -0.82745799      -0.49265065       1.40100390
O       -0.14087000       0.24770000      -4.31451000       0.68057324      -0.81868303      -1.98814689
H       -0.08691000      -0.74990000      -4.35575000       0.14392598       1.17702542       0.16973521
H       -1.83915000       0.79010000      -4.50727000      -0.13320076       0.02047208      -0.39459200
O       -2.72918000       1.18220000      -4.59969000      -1.51630744      -0.98104009      -1.33059409
H       -3.22809000       0.77040000      -5.38350000       1.55382877       0.90219767       1.84622356
H       -0.79732000      -2.93626000      -4.31599000       2.15215385       0.63090729       0.27204717
O        0.15979000      -2.60118000      -4.25215000      -2.07237025      -0.91262614      -2.93699231
H        0.53608000      -2.88396000      -5.14403000      -0.54074252       0.48389587       1.79008387
H       -4.79462000       0.52030000      -2.13091000       2.26932911      -0.23091878      -0.43969643
O       -3.80473000       0.32850000      -2.20513000      -1.65979780       0.30581673      -1.20391807
H       -3.44858000       0.62530000      -3.11547000      -0.86792539      -0.03411275       1.20489281
H        0.79763000      -3.12748000      -2.85937000       0.60320066      -0.59296690       1.33934525
O        1.18837000      -3.49018000      -2.02317000       1.55958711       0.97457168      -1.06365242
H        2.14940000      -3.15199000      -2.06079000      -1.95089703      -0.76300138       0.41497137
H        0.81965000       0.66220000      -1.37412000       0.19225698       0.26966063      -1.00446954
O        1.27667000       1.05860000      -2.17741000      -0.68968767      -0.65754441       0.37632878
H        0.80202000       0.79040000      -3.00192000       0.23884386       0.19433998       1.23815369
H       -3.78367000      -1.50970000      -2.25719000       0.00059165      -0.74639296       0.06413094
O       -3.85131000      -2.49949000      -2.25498000       1.02812208       0.32229193      -1.69883011
H       -3.30304000      -2.79869000      -3.03105000      -1.10022370       0.51315000       1.37186660
H        3.72348000      -0.89200000      -2.01552000      -0.21868501       1.55739950       0.20454676
O        3.71039000       0.10230000      -2.02862000       0.26363200      -1.18933033      -0.06582258
H        2.77967000       0.41190000      -1.95227000       0.22310107      -0.09472106      -0.34827614
H        4.29983000      -3.01811000      -1.17381000      -0.91351259       0.79821447      -1.86635115
O        3.79004000      -2.63304000      -1.96059000       1.98403315      -1.33804273      -0.30966412
H        4.26994000      -2.84899000      -2.82280000      -0.69969364       0.23509011       2.15228996
H        1.35878000       2.64790000       2.26045000      -0.39914800       1.04264785      -0.05150704
O        1.22871324       3.66104526       2.32635000       1.55472182      -0.35962792      -0.23264283
H        2.14665324       4.03086526       2.31535000      -1.28429104      -0.57373209       0.08467000
H       -3.34798000      -2.85556000       3.01395000      -1.05324636       0.92423759      -1.48985706
O       -3.88710000      -2.51591000       2.24465000       0.93126138      -0.70716704       1.29271290
H       -3.77118000      -1.53950000       2.18455000       0.05548877      -0.07624718       0.34922223
H       -0.90087000       0.42770000      -0.10605000       0.60064800      -0.40812278       0.18493458
O       -0.00000000      -0.00000000      -0.00000000      -0.47680375      -0.22768702       0.17275160
H       -0.09739000      -0.98440000       0.17266000      -0.03076661       0.75104093      -0.30067238
H        2.18279000       0.62670000       2.15825000      -0.41925082       0.26413100      -0.14285642
O        1.26345000       1.04010000       2.14695000      -0.26325835      -0.90512732      -0.51677387
H        0.75621000       0.68630000       1.33375000       0.84745414       0.34736968       1.01173352
H        0.49290000       0.40830000       3.59765000      -0.34251704      -0.26749981       0.40621987
O       -0.01938000       0.06290000       4.39555000       1.21510377       1.11900535       0.65490856
H        0.40482000       0.48050000       5.18805000      -0.46328758      -0.60100019      -1.23135237
H       -1.59624000       0.69020000       4.42505000      -1.41830568       0.95735437      -0.11020462
O       -2.52359000       1.10770000       4.39955000       1.60410619       1.81645302       0.32099414
H       -2.39611000       2.11570000       4.47015000      -0.11761689      -2.59843921      -0.17295512
H        0.37407000      -2.98583000      -0.57359000      -0.46157339       0.10473192       0.66866111
O       -0.12467000      -2.68775000       0.23475000      -1.47761544      -0.31058175      -0.94016426
H       -1.11376000      -2.98992000       0.11698000       1.63186016       0.28515684       0.25445859
H       -1.06011000      -2.82961000       4.46855000       2.11933363       0.47758989       0.38611533
O       -0.08974000      -2.61099000       4.62955000      -2.05272198       1.05229039      -0.22274679
H       -0.05388000      -1.59406000       4.60825000      -0.08868622      -1.68574015      -0.09799793
H       -3.26913000       0.52920000       1.33155000      -0.02570554      -0.03894661       0.20698851
O       -3.70003000       0.22580000       2.14975000       0.94115783       0.42701443       0.62228199
H       -3.14795000       0.61030000       2.90625000      -0.99751456      -0.58227101      -1.06169221
H       -2.90228000       0.95210000      -0.98251000       1.00644391       0.34979164       1.23886500
O       -2.30288000       1.21360000      -0.20847000      -1.30165201       0.86198922      -0.95487810
H       -2.39522000       2.21700000      -0.12671000       0.31774250      -1.17286639      -0.00753828
H       -3.07064000      -3.12736000      -0.84280000       0.01370560      -0.31525250       1.27079942
O       -2.68637000      -3.49873000      -0.00371000      -0.35726566       0.48958065       0.04619222
H       -3.20977000      -3.19210000       0.79695000       0.47789359      -0.15174637      -1.13033369
H        0.81105000      -3.11684000       3.24135000       0.83573776      -0.82732933      -1.66404907
O        1.23858000      -3.48024000       2.38525000      -0.85098853       0.85606545       1.47550907
H        0.65181000      -3.16031000       1.66025000       0.38289146      -0.27598637       0.18251058
H        4.17417000      -2.98468000       3.21325000      -0.86214367       0.62351690      -1.62534906
O        3.80121000      -2.61555000       2.36365000       0.13373554      -1.13122785       1.30239791
H        2.87396000      -2.99322000       2.26635000       0.54198314       0.28287126       0.39180933
H        3.77592000      -0.92330000       2.33955000       0.20767164       1.51551381      -0.19149538
O        3.80394000       0.08940000       2.27715000      -0.01873549      -1.01118013      -0.86645800
H        4.25507000       0.33640000       1.40365000      -0.55234139      -0.21584102       1.28349348
H        5.00789000       2.07480000      -0.00170000      -0.16692432      -2.37749252       0.16373871
O        4.96929000       1.06660000       0.06782000      -0.44144861       1.96557059      -1.58421518
H        4.48851000       0.75370000      -0.79419000       0.74834323       0.45738103       1.28464962
H        0.12122324       5.61864526       0.12695000       0.21187865      -0.55043126       0.09191178
O        0.12893324       4.65002526       0.06456000      -0.18043909       0.54321004       1.43028877
H        0.54463324       4.28337526       0.91785000      -0.35604885       0.36483829      -0.77345349
H       -2.98014676       4.16539526       0.96005000       1.23905575      -0.76253671      -2.09746798
O       -2.49379676       3.86593526       0.11756000       0.22375759       1.61712838       2.21265844
H       -1.55714676       4.27760526       0.17705000      -1.50658669      -0.92695876      -0.17724477
78
Properties=species:S:1:pos:R:3:REF_forces_OFF23(M):R:3 REF_energy_OFF23(M)=-54115.91216123305 pbc="F F F"
H       -3.65522000       0.94292000      -2.38645000      -0.01477392      -1.63020130       0.35176996
O       -3.60861000      -0.09646000      -2.27511000      -1.57082926       1.02713710      -2.52596656
H       -4.13681000      -0.46656000      -3.05841000       1.20485980       0.80744654       1.80568185
H       -4.31243000      -0.60786000      -0.91616000      -0.89901185      -0.92450256       1.63602383
O       -4.78457000      -0.98722000      -0.08493000       0.46037798      -1.34856104      -1.69375018
H       -4.82142000      -1.97782000      -0.21820000       0.15102640       1.90248497       0.18698170
H       -3.75196000       0.91425000       2.09416000       0.39070745      -2.46092627       0.40249314
O       -3.62627000      -0.12556000       2.18762000      -0.89453942       1.40253807      -1.52691926
H       -4.08149000      -0.53059000       1.36375000       0.90046858       0.87467551       1.53979037
H       -0.63293000      -4.06917000      -1.57960000      -0.83700450       1.08836676      -1.24288281
O       -1.08088000      -3.62507000      -2.35626000       0.41287557       0.58470649       0.92363021
H       -1.09314000      -2.62495000      -2.17905000       0.21554053      -2.00778407      -0.26083405
H        1.67215000      -0.63922000      -4.52068000       0.88859316      -0.37853560       0.24163574
O        2.63385000      -0.92413000      -4.49119000      -0.39352783      -1.96802298      -0.03954581
H        2.64195000      -1.93011000      -4.45138000      -0.24836828       2.18367614      -0.12571770
H        3.43405000      -0.43790000      -3.00421000       0.32545229       0.28776668       1.06002635
O        3.88675000      -0.11865000      -2.17130000      -0.72404366      -0.57012694       0.18403979
H        3.40635000      -0.49437000      -1.37859000       0.38620617       0.37919035      -1.27209849
H        3.04165000      -0.81558000       0.75673000      -0.35198995      -0.51247781      -0.15662259
O        2.46185000      -1.10955000       0.02105000      -0.20250113       0.41964687      -0.11531683
H        2.34215000      -2.07452000       0.00201000       0.46479948      -0.01918084       0.14917994
H       -0.38251000      -4.37021000       0.73268000       0.28503559      -0.48571215      -1.10419365
O       -0.00711000      -4.71156000      -0.15860000      -0.29996208      -1.63787838       1.42362517
H       -0.14810324      -5.70002526      -0.20890000       0.16400271       1.86184855       0.34526951
H        0.94425000      -0.27725000       0.01710000      -0.14218941      -0.33235107      -0.01757850
O       -0.00000000      -0.00000000      -0.00000000       0.66940319       2.04729080      -0.24103820
H        0.05625000       1.01859000      -0.03923000      -0.20260237      -1.50404900       0.03273930
H        3.07155000      -4.34500000      -0.94419000      -1.10995569       1.05138212       1.65769035
O        2.61025000      -3.89133000      -0.17185000      -0.43554588      -1.46866589      -1.42244697
H        1.66825000      -4.27404000      -0.14864000       1.48395039       0.52733815      -0.21027633
H       -2.01684000      -0.67894000       2.32762000       1.21206780      -0.17386147      -0.45968681
O       -1.04523000      -0.99330000       2.22326000      -0.69441495       0.73486725      -1.08513193
H       -0.66669000      -0.57711000       1.35866000      -0.88126802      -0.71175998       1.54120307
H       -2.09280000      -0.71519000      -2.24581000       1.08026505      -0.17948830       0.33142763
O       -1.14552000      -1.02170000      -2.23425000       0.30745665       1.45799134       0.84104120
H       -0.66872000      -0.61137000      -1.43005000      -1.02462127      -0.60295373      -1.04882860
H       -0.35453000      -0.41852000      -3.63197000      -0.04769805      -0.23985039       0.15550347
O        0.12055000      -0.11720000      -4.43483000      -0.85207696      -0.32535433      -1.42190874