15
Properties=species:S:1:pos:R:3:REF_forces_OFF23(M):R:3 REF_energy_OFF23(M)=-10405.751241102476 pbc="F F F"
H        1.54620000      -0.53461000       0.06079000       1.16082844      -0.42260000      -0.15180411
O        2.50870000      -0.78407000      -0.02064000      -0.29654375      -1.39119557       0.23285149
H        2.57720000      -1.77041000       0.05703000      -0.26494836       1.65240864      -0.08877956
H       -2.37503000      -0.54776000       2.08120000       2.80669860      -0.82208158       0.45093051
O       -1.40438000      -0.88948000       2.10185000      -1.68660951       1.12216834       1.87525662
H       -0.99844000      -0.66979000       3.00639000      -1.26819173      -0.36925264      -2.06445235
H       -0.49977000      -0.30142000       0.79878000       0.33085829       0.21801584      -0.63118996
O       -0.00000000      -0.00000000      -0.00000000      -0.86281047      -0.40113683       0.22730602
H       -0.40263000      -0.45470000      -0.76296000       0.12357874       0.20575876       0.17215679
H       -0.48339000       3.06830000      -1.04019000       1.12745421      -1.09353125       2.21781769
O       -0.05430000       2.73963000      -0.17621000      -1.21832081      -0.76163287      -1.99646486
H       -0.09310000       1.71779000      -0.18197000       0.10665646       2.11934007      -0.21850351
H       -1.26463835      -2.15980545      -2.25772881       0.02081237       2.77316541      -0.27808798
O       -1.22567835      -1.13551545      -2.33672881      -2.50864538      -2.03383259       0.18545241
H       -2.20471835      -0.85001545      -2.38642881       2.42918290      -0.79559372       0.06751079
15
Properties=species:S:1:pos:R:3:REF_forces_OFF23(M):R:3 REF_energy_OFF23(M)=-10405.911545416722 pbc="F F F"
H        0.77562000      -0.56892000      -1.37599000       0.93275299      -0.79625049      -1.24218378
O        1.29463000      -0.88997000      -2.18211000      -0.54165947      -1.77601340       0.78944433
H        1.29780286      -1.90060792      -2.16465000      -0.14243607       2.42038367       0.17513142
H        0.03568000       1.63072000       0.06461000       0.09107196       1.99239541      -0.13648170
O        0.04291000       2.65778000       0.03422000       0.71102990      -0.95131405       1.86838901
H        0.44991000       2.94472000       0.90414000      -0.81243465      -0.60366247      -1.77068309
H       -0.95979000      -0.30800000      -0.04390000       1.45094869       0.34195977       0.43395882
O       -0.00000000      -0.00000000      -0.00000000      -1.02832750      -0.42113976       0.59452141
H        0.41207000      -0.28926000       0.85428000      -0.49262131      -0.13201935      -0.90527491
H        0.85169000      -0.65253000       2.96024000       0.82429110      -0.45144757      -1.04354407
O        1.31706000      -0.97295000       2.14610000       1.30447438       1.57471444       1.23955031
H        2.20334000      -0.48002000       2.13159000      -1.98827993      -1.12867972       0.10179520
H       -3.09263000      -0.50997000       0.78565000       0.68840891      -0.37195813      -1.33821432
O       -2.54083000      -0.83499000       0.02889000      -1.49353263       0.59422405      -0.14751975
H       -2.99983000      -0.58415000      -0.81343000       0.49631363      -0.29119241       1.38111112
15
Properties=species:S:1:pos:R:3:REF_forces_OFF23(M):R:3 REF_energy_OFF23(M)=-10405.916909940279 pbc="F F F"
H        3.04165000      -0.81558000       0.75673000      -0.64693250      -0.94199165      -0.74041327
O        2.46185000      -1.10955000       0.02105000       0.50275331       0.19581382       0.34855287
H        2.34215000      -2.07452000       0.00201000       0.35094933       0.70962793       0.43239856
H        0.94425000      -0.27725000       0.01710000      -0.45375318      -0.20091636      -0.03453300
O       -0.00000000      -0.00000000      -0.00000000       0.96113909       2.32508536      -0.19735982
H        0.05625000       1.01859000      -0.03923000      -0.29976826      -1.84903690       0.07722939
H       -2.01684000      -0.67894000       2.32762000       2.84629167      -0.80100108      -0.53639828
O       -1.04523000      -0.99330000       2.22326000      -1.85642890       1.41550144      -0.89781922
H       -0.66669000      -0.57711000       1.35866000      -1.20844429      -0.76545197       1.81839155
H       -2.09280000      -0.71519000      -2.24581000       1.83971638      -0.43452549       0.32460898
O       -1.14552000      -1.02170000      -2.23425000      -0.61182689       1.01767158       0.87747115
H       -0.66872000      -0.61137000      -1.43005000      -1.43801681      -0.70397685      -1.44824428
H        1.06955000       3.15494000      -0.19455000      -2.00290519      -0.56911466      -0.36091377
O        0.12665000       2.80745000      -0.23674000       0.92602111       1.00962760      -1.59710076
H       -0.25556000       3.05052000      -1.14002000       1.09120512      -0.40731277       1.93412991
15
Properties=species:S:1:pos:R:3:REF_forces_OFF23(M):R:3 REF_energy_OFF23(M)=-10405.870657181586 pbc="F F F"
H        2.26763000       0.48660000      -2.25375000      -1.75965661       1.54184054       0.30082327
O        1.37340000       0.92640000      -2.10100000       1.53498866       1.19150406      -0.67549762
H        1.42460000       1.94040000      -2.17645000       0.37975158      -2.64121744       0.13938402
H        0.49712000       0.32300000      -0.80554000      -0.57353564      -0.32518060       0.91433427
O       -0.00000000      -0.00000000      -0.00000000       0.45147336      -1.21645219      -1.16293036
H        0.05396000      -0.99760000      -0.04124000       0.05352556       1.33640619       0.19489342
H       -1.69828000       0.54240000      -0.19276000      -0.39671143      -0.03745217      -0.35315746
O       -2.58831000       0.93450000      -0.28518000      -1.39646321      -0.73856218      -1.65646036
H       -3.08722000       0.52270000      -1.06899000       1.64315867       0.86557061       1.99879026
H       -0.65645000      -3.18396000      -0.00148000       2.14783597       0.71946440       0.29318314
O        0.30066000      -2.84888000       0.06236000      -1.56853636      -1.34740895      -2.20909817
H        0.67695000      -3.13166000      -0.82952000      -0.65122276       0.55756488       1.85685271
H        0.96052000       0.41450000       2.94039000       0.78126454       0.76822315      -2.09338314
O        1.41754000       0.81090000       2.13710000      -0.62000380      -0.64594786       1.33446079
H        0.94289000       0.54270000       1.31259000      -0.02586852      -0.02835243       1.11780522
15
Properties=species:S:1:pos:R:3:REF_forces_OFF23(M):R:3 REF_energy_OFF23(M)=-10405.847959316903 pbc="F F F"
H       -0.93500000       0.28117000       0.10711000       0.48547765       0.01191282      -0.39365832
O       -0.00000000      -0.00000000      -0.00000000      -0.30542628      -1.34351749       0.57166989
H        0.01050000      -0.99790000      -0.01094000      -0.07554527       1.13414798      -0.04700784
H        0.73990000       0.59060000       1.43367000       0.76150103       1.02361863       1.62115886
O        1.17360000       1.07332000       2.22634000      -1.83638665      -1.49020901       0.74063609
H        0.64930000       0.80489000       3.05373000       1.22315914       0.59333963      -2.15674067
H        0.58090000      -2.95207000       0.85020000      -0.90382312       0.36843803      -2.41461195
O        0.08180000      -2.70073000      -0.00045000       1.67698695      -1.18694661       0.37047837
H        0.56710000      -3.04057000      -0.81652000      -0.73243171       0.55587843       2.06624561
H       -2.97521000       0.69613000       0.73157000       0.58352163       0.51277994      -1.19414130
O       -2.42740000       1.01621000      -0.02940000      -2.14802164      -0.85445058      -0.51418968
H       -2.94988000       0.79468000      -0.86372000       1.08370318       0.45216284       1.82410246
H        0.77791774       0.61107804      -1.28681767       0.53221270       0.63419629      -1.22599108
O        1.13201774       1.01225803      -2.13991767       1.46269138      -1.01552299       0.54737969
H        2.08221774       0.71281803      -2.20631767      -1.80761898       0.60417209       0.20466987
15
Properties=species:S:1:pos:R:3:REF_forces_OFF23(M):R:3 REF_energy_OFF23(M)=-10405.897822475361 pbc="F F F"
H       -2.16640000       0.52641000      -2.28080000       2.48371475       0.96105912      -0.22198181
O       -1.20010000       0.86128000      -2.35000000      -2.70165757       0.07151613       0.22385573
H       -1.28280000       1.84038000      -2.31610000       0.09848208      -1.01000452      -0.03490953
H       -0.46340000       0.30990000      -0.83330000       0.68503318      -0.17498625       1.03827920
O       -0.00000000      -0.00000000      -0.00000000      -0.84417134       0.32141034      -1.48414563
H       -0.01271219      -0.96521871      -0.08520000       0.10226913      -0.14095553       0.25493983
H       -0.86621774       0.55007197       3.04441767      -1.04520243       0.49943676      -2.55531668
O       -1.36531774       0.80141197       2.19376767       1.24007679      -0.80555463       1.15042979
H       -0.88001774       0.46157197       1.37769767      -0.31246315       0.42386741       1.66040271
H        0.80418781      -3.18031871      -0.08370000      -1.50338829       0.92448676       0.28065522
O       -0.07571219      -2.70601871      -0.01120000       0.37619884      -2.08258278      -2.59631961
H       -0.55351219      -3.03491871      -0.85730000       1.11180121       0.86066214       2.23564248
H        2.98128000       0.67112000       0.74420000      -1.41630154       1.03175706      -2.29277613
O        2.51112000       1.04865000      -0.08450000       0.88001730      -1.28208872       2.07384206
H        1.61816000       0.62105000      -0.09510000       0.84559104       0.40197672       0.26740238
15
Properties=species:S:1:pos:R:3:REF_forces_OFF23(M):R:3 REF_energy_OFF23(M)=-10405.582061423682 pbc="F F F"
H       -1.60280000      -0.60749000       0.07860000      -1.62037018      -0.30649805       0.06204575
O       -2.57224000      -0.89181000       0.07610000       1.50709920      -1.78907373      -0.33305334
H       -2.51127680      -1.88932544      -0.03160000      -0.21698077       2.06957137       0.26381932
H        0.18664000       1.00707000      -0.13390000      -0.77889471      -2.08123095       0.63674158
O       -0.00000000      -0.00000000      -0.00000000       1.41735563       1.49786063      -2.23395164
H        0.45438000      -0.42804000      -0.79890000      -0.71111235       0.63538423       1.35577541
H        0.73720000      -0.50777000       1.30960000       0.81474471      -0.67917486       2.18161724
O        1.15228000      -0.75211000       2.23040000      -0.46337864      -3.25845399      -1.50921874
H        1.16870320      -1.80762544       2.24910000      -0.11881012       3.77386853      -0.14650469
H        0.47085000       3.06300000      -0.90980000      -0.95335143      -0.45822401       1.67256517
O        0.05734000       2.72240000      -0.06020000      -1.39231805       1.53439021      -1.74642997
H       -0.90925000       3.05625000      -0.07200000       2.45977842      -0.87100778      -0.04620640
H        0.92621000      -0.53426000      -3.00483000       1.22962448      -0.77361973       1.63764826
O        1.39383000      -0.92379000      -2.20055000       0.20320449       1.28677721      -1.49242635
H        2.28659000      -0.49598000      -2.13367000      -1.37659070      -0.58056907      -0.30242159
15
Properties=species:S:1:pos:R:3:REF_forces_OFF23(M):R:3 REF_energy_OFF23(M)=-10406.12337391464 pbc="F F F"
H       -3.03435000      -0.64173000       0.83842000       1.08683420      -0.57185045      -1.42237606
O       -2.47413000      -0.92546000       0.05723000      -1.44540348      -2.06741572       1.53434658
H       -2.46858680      -1.94189544       0.10963000      -0.03849527       2.42137822      -0.09888018
H        0.84492000      -0.63948000      -1.54376000       0.80987926      -0.61727003      -1.35542261
O        1.30316000      -0.93048000      -2.39758000      -0.70429461      -0.43080210       1.36586246
H        1.37361320      -1.90459543      -2.33432000      -0.08095695       1.05896579       0.03540852
H       -0.88454000       3.14521000      -0.07780000       1.75602503      -0.59676684      -0.38688579
O        0.02673000       2.74386000      -0.15468000      -1.34523004       0.70190114       0.07295775
H        0.44291000       3.06621000      -0.96479000      -0.37034478       0.05424106       0.23851345
H        0.02562000       1.00755000      -0.10675000      -0.44247747      -1.76205121       0.27654570
O       -0.00000000      -0.00000000      -0.00000000      -0.02753862       1.20512781      -0.46413881
H       -0.92650000      -0.34615000      -0.00358000       0.64129988       0.72031887       0.00217612
H        0.77728000      -0.52803000       1.39580000       0.99036910      -0.43216860       1.06736111
O        1.24490000      -0.91756000       2.20008000       0.76057400       0.95200263      -0.55365880
H        2.13766000      -0.48975000       2.26696000      -1.59024025      -0.63561056      -0.31180944
15
Properties=species:S:1:pos:R:3:REF_forces_OFF23(M):R:3 REF_energy_OFF23(M)=-10405.8807792069 pbc="F F F"
H       -0.01510000       1.75160000      -0.01780000       0.22881136       1.73485599      -0.07351415
O        0.13405085       2.75376714      -0.02720000      -1.46779196      -0.48357098      -1.85372570
H       -0.41764915       3.11413714      -0.80050000       1.33298058      -1.01689360       1.94821428
H       -0.82520000      -0.76640000      -3.12730000      -0.74157364      -0.09870122       1.00843718
O       -1.25240000      -0.91110000      -2.25220000      -1.12262028       0.55871806      -1.10610501
H       -2.20200000      -0.61430000      -2.32700000       1.69724839      -0.51274767      -0.06774497
H        0.93860000      -0.37100000      -0.01990000      -1.43866051       0.51533053      -0.12004236
O       -0.00000000      -0.00000000      -0.00000000       1.31027352      -0.35159415      -0.27160525
H       -0.48560000      -0.29230000      -0.79350000       0.40882244      -0.15074280       0.13823580
H       -1.19751221      -2.00484491       2.10631456       0.13924643       1.96922172      -0.23628312
O       -1.20811221      -1.00634491       2.10325456       0.74211674      -1.18903903      -1.05093568
H       -0.68361221      -0.66664491       1.28274456      -1.18070786      -0.97219490       1.70532974
H        3.06062000      -0.57320000      -0.76790000      -0.91822239      -0.76370503       2.07509179
O        2.58087000      -0.94880000       0.04360000       2.31887972       1.58153665       0.29320820
H        3.08884000      -0.60690000       0.87000000      -1.30880254      -0.82047358      -2.38856074
15
Properties=species:S:1:pos:R:3:REF_forces_OFF23(M):R:3 REF_energy_OFF23(M)=-10405.703461995652 pbc="F F F"
H       -0.76603000      -0.38998000      -1.39370000      -0.89722940      -0.75577681      -2.18718952
O       -1.29266000      -0.75940000      -2.20877000       0.84174585       0.88723430       0.57194199
H       -0.96160000      -0.40311000      -3.06064000      -0.09813493      -0.27038994       1.33564410
H       -0.04930000       1.01078000       0.09490000       0.08770400      -1.68990232      -0.15802013
O       -0.00000000      -0.00000000      -0.00000000      -1.30141605       0.97492178       1.60938971
H       -0.51422000      -0.38916000       0.79470000       0.83902820       0.78514380      -1.37940503
H       -0.77330000      -0.60909000       2.96920000      -1.47436301      -1.16127471      -2.36152157
O       -1.30398000      -0.93126000       2.14090000       1.61756719      -1.91754761       2.36840296
H       -1.19602000      -1.95937000       2.12450000      -0.22795121       2.92291928       0.20412318
H        2.90497000      -0.46587000      -0.82400000      -1.27639624      -0.76216907       1.60959856
O        2.44689000      -0.86799000      -0.02840000      -0.31085511       0.87716669      -1.20888379
H        1.45375000      -0.58980000      -0.02600000       2.24622325      -0.24100590      -0.42371167
H       -0.73904000       3.05183000       0.73360000       0.01996972      -0.01778549      -0.37386959
O       -0.24331000       2.65540000       0.00660000      -0.70612226       0.72046963      -1.16770913
H       -0.69533000       2.90915000      -0.84450000       0.64023001      -0.35200363       1.56120992
15
Properties=species:S:1:pos:R:3:REF_forces_OFF23(M):R:3 REF_energy_OFF23(M)=-10406.050444614824 pbc="F F F"
H       -2.96991000      -0.69298000       0.80509000       0.57870062      -0.82419206      -1.04532424
O       -2.52591000      -1.05797000      -0.00016000      -0.81779708      -1.58304399       1.05882380
H       -2.55151430      -2.06845779       0.07290000       0.01394856       2.38855435       0.03309352
H        0.72164000      -0.68228000      -1.43426000       0.51086363      -0.69536590      -0.42947366
O        1.22471000      -1.06365000      -2.19647000      -0.07661862      -1.54229603       0.14649982
H        1.26687570      -2.06085779      -2.11104000      -0.24754319       2.17106169       0.13952983
H       -1.15910000       2.79584000       0.11998000       1.92648133      -0.07397461      -0.65496943
O       -0.19567000       2.55377000       0.01200000      -1.12982746       1.05281221       0.08920660
H        0.23011000       3.00203000      -0.74235000      -0.84758196      -0.13952763       0.54812129
H       -0.01470000       0.99998000       0.02426000       0.01764916      -1.22808436      -0.02980189
O       -0.00000000      -0.00000000      -0.00000000      -1.36357553       0.26031343      -0.24434610
H       -0.95525000      -0.29563000      -0.05651000       1.36166147       0.26523817       0.13755395
H        0.88353000      -0.75202000       1.28040000       0.57166465      -0.15965953       1.19133309
O        1.26811000      -1.03886000       2.15964000      -0.16942283       0.17103286      -0.79924656
H        2.20291000      -0.80780000       2.14352000      -0.32860276      -0.06286860      -0.14100002
15
Properties=species:S:1:pos:R:3:REF_forces_OFF23(M):R:3 REF_energy_OFF23(M)=-10405.785564080543 pbc="F F F"
H       -1.52476000       0.68510000      -0.08372000      -2.00555890       0.97011483       0.03387075
O       -2.47122000       1.08570000      -0.12342000       1.71789269       0.58743854      -0.01296963
H       -2.35151000       2.06410000      -0.16005000      -0.05852835      -1.40112184       0.06824388
H        0.54040000      -2.95228000      -1.07702000      -1.29901878       0.68818449       1.98105613
O        0.01771000      -2.70232000      -0.24639000       1.31132206      -0.80441237      -1.91007220
H       -0.00068000      -1.72754000      -0.22612000      -0.00472115      -0.21285710      -0.05940148
H        0.85870000       0.63760000       3.03289000       1.60094942       0.92060758      -2.38342632
O        1.34749000       0.98950000       2.19207000       0.39764682      -1.54604043       2.20714473
H        2.28719000       0.64150000       2.22835000      -1.83348382       0.57308674       0.27722326
H        0.62672000       0.25790000       0.80365000      -1.96128248      -0.52862123      -1.97733049
O       -0.00000000      -0.00000000      -0.00000000       2.86461771       1.38067498       0.67627007
H        0.46718000       0.42710000      -0.79019000      -0.91567871      -0.65382125       1.27227986
H        1.47809000       2.13800000      -2.26871000      -0.27706673      -1.93757595       0.33570230
O        1.35599000       1.15440000      -2.10735000       1.25257205       1.60128360      -0.32181710
H        2.26379000       0.80090000      -2.01378000      -0.78966184       0.36305942      -0.18677377
15
Properties=species:S:1:pos:R:3:REF_forces_OFF23(M):R:3 REF_energy_OFF23(M)=-10405.68392158563 pbc="F F F"
H        3.03428000      -0.45860000      -0.82864000      -1.11581208      -1.19757673       2.30220843
O        2.54744000      -0.91030000      -0.04507000       2.44118630       1.70700213       0.00043684
H        3.03612000      -0.64680000       0.81011000      -1.00404839      -0.58696182      -2.26843694
H       -2.43250000      -0.43030000       2.02200000       2.37756654      -0.91472394       0.24491603
O       -1.47901000      -0.76830000       2.12821000      -1.71704927       1.55447620      -1.49068435
H       -1.01083000      -0.43250000       1.28885000      -0.79690086      -0.79189433       1.51665162
H        0.06814000       0.99000000      -0.02149000      -0.05973462      -0.90259265       0.00074137
O       -0.00000000      -0.00000000      -0.00000000       0.86029722       0.70195776      -0.04447458
H        0.92555000      -0.34940000       0.02464000      -0.78247743       0.20005600       0.01634824
H       -0.66336434      -0.42394241      -3.13181439      -1.27321526      -0.79143725       2.60160069
O       -1.16245434      -0.73984241      -2.29131439       2.04412005       1.33803513      -0.92777404
H       -0.65163434      -0.41294241      -1.45371439      -1.00534621      -0.69292220      -2.00463691
H       -0.39886377       2.96517922       0.83614000       1.45488008      -0.45127115      -1.87893658
O        0.08088623       2.68075922      -0.00954000      -0.83123224       0.73187745       1.54687799
H        0.99080623       3.01243922      -0.01130000      -0.59223383       0.09597539       0.38516218
15
Properties=species:S:1:pos:R:3:REF_forces_OFF23(M):R:3 REF_energy_OFF23(M)=-10405.968348990724 pbc="F F F"
H        2.14194000       0.53760000      -2.29542000      -2.01881774       0.87854856       0.04115126
O        1.21917000       0.94530000      -2.22643000       1.34699452      -1.25686771      -1.28267622
H        0.72244000       0.62970000      -3.02304000       0.80981294       0.39092272       1.07355244
H       -0.96363000       0.29950000       0.06007000       1.63980494      -0.13800805      -0.65473278
O       -0.00000000      -0.00000000      -0.00000000      -0.41826979       0.61212871      -1.02837146
H        0.48857000       0.31890000      -0.83429000      -1.39228468      -0.22682748       1.44496575
H       -0.01182000      -1.65508000      -0.04604000       0.19144967      -1.03581581      -0.20898269
O       -0.01033000      -2.65081000      -0.08008000       0.37346110       0.00804608      -0.95114657
H        0.40303000      -2.92374000      -0.92991000      -0.53672999       0.53385966       1.13437146
H        0.74746000       0.50400000       1.37333000       0.62674396       0.74595353       0.67230432
O        1.26802000       0.81560000       2.16372000       0.02074954       1.48581941       0.04433060
H        1.33622000       1.81260000       2.17532000      -0.33025379      -2.04052723      -0.34441200
H       -2.61530000       1.88960000       0.09863000       0.25333957      -1.12201272      -0.16116350
O       -2.50950000       0.90990000       0.08463000      -1.09482893       1.06101114       1.15283725
H       -2.97560000       0.63390000       0.90699000       0.52882869       0.10376918      -0.93202787
15
Properties=species:S:1:pos:R:3:REF_forces_OFF23(M):R:3 REF_energy_OFF23(M)=-10405.739110585937 pbc="F F F"
H        0.18031000       1.65340000       0.08782000      -0.25281812       1.70374378       0.12723792
O        0.22343392       2.66365976       0.06393000      -1.11369716      -0.16458789       1.78466267
H       -0.32591608       3.01168976       0.84179000       1.33012761      -1.09010752      -1.89801905
H        2.44801000      -1.90620000      -0.02095000       0.53325949       1.66157100       0.05669577
O        2.57101000      -0.92240000      -0.12155000       1.27852586      -0.64210167       1.92548379
H        3.16711000      -0.58380000       0.64241000      -1.63197414      -1.20533926      -2.01278317
H       -0.38318000      -0.42620000       0.82579000       0.25872344       0.67337332      -1.16704170
O       -0.00000000      -0.00000000      -0.00000000       0.94573990      -1.26631226       0.99820620
H        0.92201000      -0.37760000      -0.05940000      -0.83650455       0.67152574       0.04540168
H       -1.22582000      -1.97270000       2.21112000       0.01279057       2.04167357      -0.17867977
O       -1.18203000      -0.97030000       2.12285000      -2.64641130      -1.53202450       0.66602189
H       -2.15878000      -0.67480000       2.13134000       2.40715179      -0.73898737      -0.06246388
H       -0.55544000      -0.54110000      -1.44888000      -0.96021584      -0.51771238      -1.81559004
O       -1.02102000      -0.92240000      -2.27928000       1.76285086       0.97904099      -0.63008722
H       -0.51068000      -0.62050000      -3.09875000      -1.08754841      -0.57375555       2.16095492
15
Properties=species:S:1:pos:R:3:REF_forces_OFF23(M):R:3 REF_energy_OFF23(M)=-10405.864774705335 pbc="F F F"
H       -0.90600000      -0.58365000      -1.30070000      -0.39289274      -0.29881684      -1.11061213
O       -1.36100000      -0.93262000      -2.12220000      -2.10444911       1.14986878       1.01076791
H       -2.30150000      -0.54952000      -2.05130000       2.40173791      -0.94494945      -0.25474981
H       -0.49880000      -0.34637000       0.76310000       0.47057267       0.07960451       0.05766959
O       -0.00000000      -0.00000000      -0.00000000       1.13093117      -0.85242683       0.01341010
H        0.94640000      -0.36801000       0.02870000      -1.65450270       0.54641344       0.02275870
H        0.76350000       2.97890000       0.19810000      -2.56904042      -1.16972978      -0.32901590
O       -0.18040000       2.60520000       0.07510000       2.38717109       0.65062807       0.36634255
H       -0.09130000       1.61080000       0.06320000       0.17554951       1.13187666      -0.04511123
H       -2.12751751      -0.52780401       2.23429974       1.85107438      -0.72536379       0.11053461
O       -1.16811751      -0.82842401       2.24831974      -1.98279292      -1.55226600       0.27184215
H       -1.19291751      -1.83490401       2.30599974      -0.15130996       2.13188392      -0.09034910
H        2.59140000      -1.88949000      -0.03600000      -0.10579888       1.71125440      -0.21193393
O        2.46731000      -0.90055000      -0.04730000       1.61970649      -0.94494985      -1.46089722
H        2.97682000      -0.54941000      -0.84390000      -1.07595649      -0.91302722       1.64934371
15
Properties=species:S:1:pos:R:3:REF_forces_OFF23(M):R:3 REF_energy_OFF23(M)=-10405.943774087862 pbc="F F F"
H        0.96547000      -3.13322000      -0.09950000      -1.91585943       0.84522014       0.14730911
O        0.04247000      -2.74498000       0.00970000       0.95531671      -1.41360245      -1.29718790
H       -0.48591000      -3.10000000      -0.75220000       0.87439155       0.47032540       1.11169013
H       -0.87703000       0.59437000      -1.36580000      -0.43153909       0.12412950      -1.01293671
O       -1.33275000       0.81763000      -2.22410000       0.42476971       1.08679716       0.76234318
H       -1.24266000       1.79312000      -2.28650000      -0.12324522      -1.15264980      -0.04165287
H       -0.48767000       0.22763000       0.85010000       0.65064915      -0.13277124      -1.12298026
O       -0.00000000      -0.00000000      -0.00000000      -1.18882255      -1.51528096       1.15066002
H       -0.07023000      -1.00627000      -0.02870000       0.43063643       1.42676777      -0.10178154
H        1.47717000       0.63424000      -0.14180000       1.89446654       0.35373287       0.06576455
O        2.45498000       0.94046000      -0.13960000      -1.68753683       1.27949390       0.07939801
H        2.37109000       1.92728000      -0.09790000       0.29783389      -1.51370631      -0.11138915
H       -0.87690000       0.46745000       3.05310000      -1.39323636       1.18305131      -2.67934545
O       -1.34201000       0.74285000       2.16450000       1.11045433       1.43401153       2.55492167
H       -1.33946000       1.75958000       2.10620000       0.10172118      -2.47551883       0.49518720
15
Properties=species:S:1:pos:R:3:REF_forces_OFF23(M):R:3 REF_energy_OFF23(M)=-10405.763411867165 pbc="F F F"
H       -0.14051000       1.68588000      -0.07818000      -0.04555052       1.67196713       0.02861350
O       -0.05723000       2.69805000      -0.09754000      -3.01951131      -0.04368648       0.01440403
H       -1.02770000       3.07347000      -0.09840000       3.08483520      -1.41524069      -0.01557702
H        0.55772000      -0.29020000      -0.76688000      -0.48423492       0.10585563       0.66211301
O       -0.00000000      -0.00000000      -0.00000000       0.86342690      -0.47561827       0.29456649
H        0.46334000      -0.32673000       0.82268000      -0.51441181       0.34493019      -0.98685737
H       -2.97095000      -0.60357000       0.64017000       1.12565190      -0.87216596      -2.18127688
O       -2.55609000      -0.96177000      -0.21710000       0.73739384       1.26790386       2.14603627
H       -1.56732000      -0.68620000      -0.15488000      -2.12817491      -0.41850125       0.03308353
H        0.79718000      -0.59965000       3.02003000       1.21312890      -0.59294045      -1.74456580
O        1.24237000      -0.91393000       2.17026000       1.67676090       1.09693356       1.98961647