45
Properties=species:S:1:pos:R:3:REF_forces_OFF23(M):R:3 REF_energy_OFF23(M)=-31218.24449998486 pbc="F F F"
H       -0.65440000       3.78216000      -1.58261000      -0.79609816      -0.58032528      -1.14077500
O       -1.16130000       3.45381000      -2.38731000       0.51507904      -1.48179474       0.87946398
H       -1.14710000       2.43460000      -2.34033000       0.15508307       2.89973988       0.00918073
H       -0.90370000       0.37711000      -3.14854000      -0.89874050       1.05834473       1.93142886
O       -1.28830000       0.82637000      -2.31705000      -1.26997487      -2.47750238      -2.14578315
H       -2.27860000       0.63151000      -2.36757000       2.05635264       0.38203451       0.08321524
H       -0.55180000       0.32502000       0.75676000       0.19639540      -0.05876173      -0.40590571
O       -0.00000000      -0.00000000      -0.00000000      -0.64051921      -0.05235981      -0.51181360
H       -0.45900000       0.25084000      -0.84232000       0.35876450      -0.06642114       0.86763523
H       -0.61410000       3.89552000       0.71609000       1.14495022       0.62450534      -1.30901023
O       -0.06180000       4.24820000      -0.03038000       0.72521301      -0.57691501       1.39531830
H        0.90150000       3.99161000       0.14374000      -1.44375489       0.29771327      -0.48330210
H       -0.95680000       3.67174000       3.02505000      -0.94863898      -0.27264718      -1.64842723
O       -1.42370000       3.46293000       2.16037000      -1.00420640       0.83039110       2.29745759
H       -2.36080000       3.78262000       2.26782000       1.44952496      -0.33652894      -0.10976555
H       -1.00850000       0.51031000       2.95795000      -0.51304303       0.37109677      -0.93152530
O       -1.45840000       0.77813000       2.10378000       0.22084996       1.87412966       0.31976001
H       -1.53360000       1.80832000       2.07340000       0.42335771      -2.32169106       0.22759069
H       -4.42932000       0.15142000       1.04982000       1.67325973      -0.95720650       2.81382269
O       -3.98247000      -0.17190000       1.93139000      -1.03384544       1.06878228      -2.46506166
H       -3.05890000       0.18709000       1.96450000      -0.90918313      -0.26458210      -0.37580234
H       -0.65360000       0.22537000       5.13695000       1.02584631      -0.92777969      -2.18195970
O       -0.24170000      -0.05311000       4.24505000      -0.55622928      -1.38059455       2.53739797
H       -0.16480714      -1.05941792       4.27195000      -0.23225927       2.14653455       0.08638162
H       -1.45700714      -4.64781792      -2.18316000       0.25178725       3.00460134      -0.13763902
O       -1.40510714      -3.62281792      -2.26810000       0.59963711      -2.08103959       1.82147708
H       -0.94220714      -3.30181792      -1.41111000      -0.88265512      -0.94937942      -1.86634507
H       -0.07040714      -1.79821792       0.06558000      -0.14606551      -0.24939568       0.28455040
O       -0.04690714      -2.78301792       0.02400000      -1.22099754      -0.73525636       1.75091412
H       -0.54320714      -3.17801792       0.81656000       1.16273287       1.30270042      -1.85310437
H        3.31645000       0.26607000      -1.40488000       0.89465205      -0.81817090      -1.23205941
O        3.83546000      -0.05498000      -2.21100000      -0.53710831      -1.77560373       0.78714695
H        3.83863286      -1.06561792      -2.19354000      -0.12836860       2.43157181       0.17566751
H        2.57651000       2.46571000       0.03572000       0.06337758       1.56640474      -0.22111337
O        2.58374000       3.49277000       0.00533000       0.75850092      -0.76079700       2.07016606
H        2.99074000       3.77971000       0.87525000      -0.65640592      -0.58271913      -1.78019546
H        1.58104000       0.52699000      -0.07279000       1.11480700       0.28325747       0.40392076
O        2.54083000       0.83499000      -0.02889000      -0.84390059      -0.14576079       0.67864293
H        2.95290000       0.54573000       0.82539000      -0.49356586      -0.18397596      -0.92660740
H        3.39252000       0.18246000       2.93135000       0.81544041      -0.46202724      -1.04549610
O        3.85789000      -0.13796000       2.11721000       1.30653000       1.62820247       1.24280594
H        4.74417000       0.35497000       2.10270000      -1.97868472      -1.15284347       0.11065302
H        1.66304286      -3.30991792      -0.00304000       0.51767432      -0.40414372       0.24369481
O        2.55962286      -3.69901792       0.10667000       1.19371082       1.66086289      -3.53749094
H        3.01813286      -3.35031792      -0.78769000      -1.48928155      -1.37465014       3.29089023
48
Properties=species:S:1:pos:R:3:REF_forces_OFF23(M):R:3 REF_energy_OFF23(M)=-33300.414308805215 pbc="F F F"
H        2.37035000       0.51360000      -2.37430000      -2.39715743       0.81256500       0.46480428
O        1.41444000       0.82430000      -2.20280000       2.61304782      -0.50132953      -0.48012409
H        1.42635000       1.80960000      -2.32120000       0.07215474      -0.07276775       0.17930362
H        0.58530000       0.30660000      -0.76500000      -1.00175470      -0.59851034       1.11146339
O       -0.00000000      -0.00000000      -0.00000000       1.32784230       1.12490051      -0.71171577
H        0.47461000       0.34040000       0.80420000      -0.51510685      -0.32657057      -0.46705683
H        0.65556000       0.25900000      -5.21110000      -0.74510659      -0.47456897       1.57646982
O        0.11903000      -0.06620000      -4.43960000       1.26890804       0.83674144       0.20020877
H        0.58397000       0.20370000      -3.56890000      -0.78731378      -0.40887583      -2.04897644
H        0.70712000      -3.06262000       0.57190000      -1.32231598       0.95365910      -1.80350346
O        0.17091000      -2.70534000      -0.22850000       1.06006836      -0.13669434       1.76593485
H        0.06544000      -1.73652000      -0.04610000       0.10986709      -0.78711171      -0.26004480
H        4.34793835       0.33344545       1.33432881      -0.63910348      -0.71703348       1.45648890
O        3.86015835      -0.04445455       2.12048881       1.98674460       1.72728516       0.53762240
H        4.30355835       0.37184545       2.94085881      -1.01901917      -1.08071846      -2.08195084
H       -0.96783165       0.44144545       4.24486881       2.81800413      -1.13339747      -0.03181919
O       -0.00609165       0.07164545       4.29992881      -2.19863571       1.50742159      -0.68171144
H        0.47780835       0.45594545       3.51299881      -0.80864004      -0.66916943       0.97214609
H        1.31530835       1.92294545       2.12966881       0.32537846      -1.80353895      -0.08255695
O        1.34716835       0.91554545       2.12681881       0.82678768       1.00642444      -0.30721830
H        2.28046835       0.56434545       2.00692881      -1.11479552       0.60490684       0.43433497
H        1.26521835      -4.61971455       2.05065881      -0.07204008       1.67139067       0.25153576
O        1.32025835      -3.62606455       2.04788881      -1.14182778      -0.70396177       2.18218008
H        0.75930835      -3.28101455       2.83576881       1.40596392      -1.07364691      -2.10395865
H        1.02725714       3.84018792      -1.51060000      -0.42659507       0.33138015      -0.11551812
O        1.42726714       3.51592792      -2.34830000      -0.28471421      -0.19797284      -1.23813707
H        0.87840714       3.78296792      -3.12230000       0.59167548      -0.13700265       1.35715866
H        0.58395714       4.05038792       0.73770000      -1.02462341       0.49016978      -1.39687795
O        0.18978714       4.40421792      -0.10560000      -0.03064641      -0.71873437       0.06816577
H       -0.71742286       4.00658792      -0.25020000       0.78627603       0.56296889       0.49700331
H        0.90969549       4.03292337       2.92106881       0.38583365      -0.69152310      -1.21947005
O        1.26551549       3.59287338       2.10121881       2.13771992       1.44794830       2.09327155
H        2.24444549       3.85321338       2.09993881      -2.06013567      -0.48130476      -0.06539587
H       -2.53547000       2.71840000      -0.24870000       0.17794321       0.47309320       0.16509007
O       -2.39526286       3.70403792      -0.28700000      -1.85745864      -0.14679634      -2.61017822
H       -2.93646286       3.95658792      -1.12740000       1.59965638      -0.53113132       2.43721517
H       -3.28167000       0.38210000      -3.27590000      -0.10702251      -0.37534303       0.67043794
O       -3.64037000       0.04990000      -2.42850000      -2.21241267       1.07900398      -1.21221553
H       -4.59997000       0.37160000      -2.44300000       2.05636090      -0.82108028       0.09433823
H       -1.48897000      -3.28339000      -0.16070000      -0.73125525      -0.44999412      -0.16350356
O       -2.44447000      -3.56976000      -0.20090000       0.47544666      -2.30685084       0.22360049
H       -2.44097000      -4.58725000      -0.18190000       0.17295642       2.69405790      -0.07049372
H       -1.57927000       0.73560000      -0.21880000      -0.44179083      -0.39955994       0.17537283
O       -2.54317000       0.93800000      -0.20030000       0.19237280       0.51973806      -0.64856733
H       -2.94037000       0.59530000      -1.03760000       0.55522743       0.07589573       0.64418710
H       -3.85466165      -0.94465455       1.91395881       0.25428378       1.90569070      -0.05158549
O       -3.80626165       0.04514545       2.03415881       0.00172413      -1.24877526      -0.61546424
H       -3.42416165       0.42334545       1.19584881      -0.26277212      -0.83127710       0.90970984
54
Properties=species:S:1:pos:R:3:REF_forces_OFF23(M):R:3 REF_energy_OFF23(M)=-37462.60289139328 pbc="F F F"
H       -4.01771000       1.06159000      -2.28415000       0.39182153      -3.41839587       0.18522212
O       -3.89202000       0.02178000      -2.19069000      -1.64000728       2.27605813      -2.28845752
H       -4.34724000      -0.38325000      -3.01456000       1.13952480       1.21560121       2.11388747
H        0.67850000      -0.12991000      -4.36121000      -0.86296338       0.20011182      -0.03547273
O       -0.26575000       0.14734000      -4.37831000       1.32852590       2.43872495      -0.26267711
H       -0.20950000       1.16593000      -4.41754000      -0.17357413      -2.55739750       0.09495246
H       -2.28259000      -0.53160000      -2.05069000       1.88773351      -0.40737576      -0.44228093
O       -1.31098000      -0.84596000      -2.15505000      -1.04305391       1.15386235      -1.01600916
H       -0.93244000      -0.42977000      -3.01965000      -0.90491207      -0.75274994       1.60243846
H        3.30920000      -0.17746000      -1.49451000       0.54892047      -0.15151530      -1.02298460
O        3.66950000       0.05222000      -2.39668000       1.29838563      -0.27209713       0.58105858
H        4.62860000      -0.22753000      -2.42320000      -1.95658752       0.43948521       0.25500339
H       -1.36327000      -2.55161000      -2.19942000       0.04448552      -1.74993999      -0.14333088
O       -1.34288000      -3.57218000      -2.26262000      -2.72698321       1.07732574      -0.26753449
H       -2.32534000      -3.84137000      -2.24658000       2.52738740       0.63691184       0.03477172
H       -0.88406000       3.18474000      -1.39586000      -0.56081664       0.56302112      -1.41782982
O       -1.39385000       3.56981000      -2.18264000       1.17643519      -0.88479444      -1.20988559
H       -0.91395000       3.35386000      -3.04485000      -0.91334369       0.46479519       2.25990211
H       -3.91651000       1.09975000       2.24860000       0.03225179      -1.13669186      -0.03938260
O       -3.81755000       0.12339000       2.18940000      -1.77836772       0.29436283       2.52218890
H       -4.28604000      -0.22185000       3.04210000       1.28938070       0.89680427      -2.40272879
H       -1.41781000      -2.48257000       2.10340000       0.27994597      -1.77004898      -0.19637007
O       -1.44002000      -3.48319000       2.09110000      -0.01509476       0.85375372      -0.08533684
H       -0.90967000      -3.81382000       1.32160000      -0.46303801       0.40195770       0.51470750
H        2.86550000      -0.49044000       0.75140000      -0.27860025      -0.74216503      -1.01019210
O        2.51290000      -0.88535000      -0.09402000      -0.38526935       1.11082918       1.12213947
H        1.54570000      -0.61514000      -0.09046000       0.78308903      -0.24453231      -0.00863909
H        3.63040000       0.95448000       2.22610000       0.12804012      -2.01412631       0.47332168
O        3.76180000      -0.03989000       2.24580000      -1.77971139       0.70974075       2.01353588
H        3.20060000      -0.41306000       3.03650000       1.49678804       1.41859138      -2.27861826
H       -0.68006000      -0.32802000       5.30040000       1.49842151       0.60677207      -2.46309763
O       -0.12620000      -0.04885000       4.48540000      -1.13053821      -0.31234897       2.56026646
H       -0.55179000      -0.41935000       3.69110000      -0.09332058      -0.08887076       0.02020012
H        2.86450000      -3.95515000       0.85570000      -0.66011425       1.20012278      -1.77677273
O        2.52090000      -3.55995000      -0.00064000       0.67965994      -2.10190062       1.49031522
H        2.58780000      -2.60297000       0.00486000       0.18215589       0.66965670       0.35725477
H       -0.87997000      -0.53645000       1.29780000      -0.35408043      -0.35099419       1.42690877
O       -1.27692000      -0.79977000       2.19750000      -1.62213262       1.42036833      -1.34142265
H       -2.24649000      -0.46930000       2.17410000       2.17859248      -0.72991858      -0.04939337
H       -0.43587000      -0.33900000      -0.84835000       0.26730304       0.58782496       0.85891631
O       -0.00000000      -0.00000000      -0.00000000      -0.13654420       1.06934268      -0.81495507
H        0.02080000       1.01723000      -0.01159000      -0.27471823      -1.61515942      -0.27036290
H       -0.51796000      -4.14925000      -0.90714000       0.58940685      -0.53411057       1.32133106
O       -0.11470000      -4.48212000      -0.04520000       0.57267921       0.67601007      -1.16726735
H        0.81590000      -4.13482000      -0.03535000      -0.97367887      -0.40730779      -0.13739217
H       -1.00972000       3.21817000       2.99120000      -0.79979237       0.44998265      -1.32624233
O       -1.38268000       3.58730000       2.14160000      -1.22625352      -1.27703183       1.23148905
H       -2.30993000       3.20963000       2.04430000       1.96689182       0.79927392       0.38494503
H        2.88060000       3.20794000      -0.92659000      -1.52853531       1.30288225       1.88642631
O        2.33140000       3.68751000      -0.19507000       2.61129811      -2.03568673      -0.26680197
H        2.74730000       3.34014000       0.64960000      -0.65980953       0.78610559      -1.59884969
H        0.76100000       3.07290000      -0.03038000       0.44805392       0.31727265      -0.32712913
O       -0.13220000       2.71388000      -0.04708000      -0.68231024      -0.36118799       1.46064958
H       -0.54457000       2.97992000       0.82870000       0.27697328      -0.12120417      -1.10441481
51
Properties=species:S:1:pos:R:3:REF_forces_OFF23(M):R:3 REF_energy_OFF23(M)=-35381.582538833485 pbc="F F F"
H       -1.00567000       0.26817000      -4.24819000       2.71058210      -0.73814668      -0.55156394
O       -0.03406000      -0.04619000      -4.35255000      -1.48834682       1.63213140      -2.20392779
H        0.34448000       0.37000000      -5.21715000      -1.34897116      -1.05805408       2.40869994
H       -3.38340000       0.27307000      -1.48130000      -0.01412623      -0.14671829      -0.96180685
O       -3.82803000      -0.11027000      -2.27635000       1.31971036       1.13088005      -2.29328596
H       -3.37565000       0.24811000      -3.14544000      -1.36938145      -1.01178868       3.18264217
H       -2.63959000       1.89952000       0.05110000       0.25258894      -0.65121767      -0.25338723
O       -2.54063000       0.92316000      -0.00810000      -1.26364697      -0.44430091       2.05645692
H       -3.00912000       0.57792000       0.84460000       0.94099402       0.49583220      -1.88453202
H       -3.49050000       0.16313000       3.04360000      -0.55551415      -0.59053746      -1.21233953
O       -3.86220000      -0.07457000       2.16030000       0.42884213      -0.80394890       0.99709406
H       -3.84787000      -1.06033000       2.07840000       0.07739008       1.30652639       0.26136785
H       -0.14089000      -1.68280000      -0.09410000       0.23387336      -1.11615876      -0.16833566
O       -0.16310000      -2.68342000      -0.10640000      -0.08412724       0.58665481      -0.59688316
H        0.36725000      -3.01405000      -0.87590000      -0.59763506       0.56049379       0.85141717
H        4.14242000       0.30933000      -1.44610000      -0.66864365      -0.83532926      -1.44941171
O        3.78982000      -0.08558000      -2.29152000      -0.27235641       0.89983860       1.31437069
H        2.82262000       0.18463000      -2.28796000       1.37398421      -0.24988348       0.18934368
H        4.12862000       0.24809000       2.89110000      -0.74699520      -0.53021884      -1.25781089
O        3.65052000      -0.08195000       2.09010000       0.16784347       1.02213707       1.28000605
H        2.73082000       0.30490000       2.17100000       1.06013025      -0.63620566       0.03051299
H        0.93472000      -4.42412000       2.21080000       0.05611583       2.37413096      -0.51900512
O        1.03511000      -3.42780000       2.09280000      -0.63154755      -1.80986173       0.09807424
H        0.48322000      -3.14348000       1.29240000       0.71806890      -0.72221848       0.74198167
H        0.59686000       0.47175000       3.10290000       1.17051381       0.35492396      -1.82148356
O        1.15072000       0.75092000       2.28790000      -1.22075968       0.18496357       1.83386683
H        0.72513000       0.38042000       1.49360000      -0.05469652      -0.02780592      -0.31320864
H       -0.28840000      -0.96950000       4.43140000       0.07975357       1.76084128      -0.14600726
O       -0.27535000       0.03257000       4.37850000      -2.81412295      -1.24544866       0.84899903
H       -1.24739000       0.32110000       4.49960000       2.59735687      -0.76268518      -0.23784473
H        0.39695000       0.26332000      -0.89970000      -0.23062579      -0.21540486       1.42849186
O       -0.00000000      -0.00000000      -0.00000000      -1.59267901       0.86993511      -1.27711544
H       -0.96957000       0.33047000      -0.02340000       1.83828433      -0.48886589      -0.00414033
H        0.84105000       0.46077000      -3.04585000       0.59835303       0.87029038       1.35525933
O        1.27692000       0.79977000      -2.19750000      -0.73278437       0.67885088      -1.07756111
H        1.29772000       1.81700000      -2.20909000      -0.24287596      -1.28076355      -0.22673016
H        0.75896000      -3.34948000      -3.10464000       0.99222232      -0.64313896       1.82028549
O        1.16222000      -3.68235000      -2.24270000       0.61849842       1.02320172      -2.00883063
H        2.09282000      -3.33505000      -2.23285000      -1.36325230      -0.39764169      -0.09231423
H       -3.09592000       3.88578000       0.82180000       1.12094768      -0.79108026      -2.13561798
O       -2.66839000       3.52238000      -0.03430000      -2.39180508       1.67847760       1.36665432
H       -3.25516000       3.84231000      -0.75930000       0.65672688      -0.33241757       0.76148830
H        0.26720000       4.01794000       0.79370000      -0.47551884       0.19165296      -0.62085273
O       -0.10576000       4.38707000      -0.05590000      -1.07378995      -0.81957325       0.08416801
H       -1.03301000       4.00940000      -0.15320000       1.90513779       0.77553724       0.38339664
H        0.90199000       2.48618000       2.35080000       0.04470295       0.49963692      -0.34107687
O        0.82266000       3.47459000       2.25870000       2.60320610       0.16381388       0.43890752
H        1.79342000       3.78082000       2.29370000      -2.41696404      -0.74135800      -0.02615320
H        2.03792000       3.87267000      -2.22788000      -0.22603768      -0.02134284      -0.05027564
O        1.14472000       3.51365000      -2.24458000       0.12005115      -0.02730972       0.56962854
H        0.73235000       3.77969000      -1.36880000       0.19132549       0.07867449      -0.57161090
48
Properties=species:S:1:pos:R:3:REF_forces_OFF23(M):R:3 REF_energy_OFF23(M)=-33300.23657436621 pbc="F F F"
H        0.06300000       1.74080000      -0.07400000       0.09245679      -0.32385727       0.27437466
O        0.07571219       2.70601871       0.01120000      -0.59548678       0.73224438      -1.54220182
H       -0.38768781       3.01591871      -0.82210000       0.84184913      -0.36368581       1.31020016
H        0.93070000      -0.27650000      -4.39720000      -1.92640672       0.71114514       0.03200269
O       -0.01170000       0.08060000      -4.37820000       1.21658511      -1.15954365      -2.15729841
H       -0.40840000      -0.19930000      -5.26210000       0.90272879       0.54858464       1.81688926
H       -0.83150000      -0.44100000      -3.07300000      -0.72724437      -0.69180463       1.84674182
O       -1.24380000      -0.79440000      -2.19650000       0.09448971       0.94155540      -1.95337621
H       -2.18980000      -0.51830000      -2.22250000       0.56859376      -0.14915230       0.18389124
H       -4.28538000      -0.34880000      -3.08630000       0.59892183       0.52619938       2.05013086
O       -3.84986000       0.00710000      -2.25090000      -1.98811397      -1.34485895       0.54757571
H       -4.34792000      -0.35680000      -1.42440000       1.22951178       0.83868505      -2.58217166
H       -1.14540000      -2.53957000      -2.15180000      -0.06522482      -1.64208685       0.28242328
O       -1.20990000      -3.54129000      -2.14810000       0.86963909       0.53707772       0.99514956
H       -0.72180000      -3.87988000      -1.33560000      -0.98951537       0.97490702      -1.41437874
H        0.87530000      -4.32251000       0.26060000      -1.26723082       0.24707116      -0.04022231
O       -0.13570000      -4.46620000       0.28040000       1.17927715      -2.19493691      -0.11380844
H       -0.25530000      -5.45515000       0.18270000       0.17996236       1.80687061       0.18911758
H        0.87990000      -0.47430000      -0.07250000      -0.97351915       0.81363466       0.60413448
O       -0.00000000      -0.00000000      -0.00000000       0.61284376      -1.36758119      -2.29946600
H       -0.47780000      -0.32890000      -0.84610000       0.47975111       0.73131792       1.42724407
H       -1.40021774      -1.67828803       2.07895767      -0.09046390       1.99525812       0.24937009
O       -1.36331774      -0.65948803       2.11467767       0.59273680      -1.55834518      -1.15928492
H       -0.82031774      -0.41328803       1.29064767      -0.88563648      -0.24037999       1.35098238
H       -0.64691774      -0.18368803       3.52303767       0.48940975       0.04609390       1.66991508
O       -0.12031774       0.04571197       4.38266767      -1.58660763      -0.99249014       1.55798097
H       -0.59261774      -0.30028803       5.23928767       1.15628489       0.96863695      -3.15899289
H       -2.47881774      -3.73428803       2.23994767      -0.02908319      -0.02667538      -0.13383795
O       -1.60341774      -3.34978803       2.26220767       1.10415785      -1.01645676      -0.96256551
H       -1.04061774      -3.82502803       1.55598767      -1.10944910       0.77925701       1.12488888
H       -2.09068781       3.23242871      -2.26960000       2.51419536       0.88546658      -0.15685793
O       -1.12438781       3.56729871      -2.33880000      -2.74057888       0.22461579       0.00090660
H       -1.20708781       4.54639871      -2.30490000       0.05835764      -1.05663427      -0.01615865
H       -0.79050555       3.25609067       3.05561767      -1.06781952       0.34351170      -2.57727690
O       -1.28960555       3.50743067       2.20496767       1.18259036      -0.51446068       1.26077743
H       -0.80430555       3.16759067       1.38889767      -0.19862421       0.24639752       1.50643135
H        4.76736000      -0.18820000      -2.17940000      -1.34792927       0.58308212       0.04461025
O        3.82978000       0.12550000      -2.11580000       1.23736852       0.63560574      -0.14827465
H        3.85486000       1.10770000      -2.14950000       0.08981381      -1.11092093      -0.02846945
H        2.93860000      -0.48940000      -0.68330000      -0.47041654      -0.77160812       0.80092230
O        2.51858000      -0.94630000       0.09880000       1.37392055       1.22537268      -0.04253943
H        2.95127000      -0.49120000       0.89510000      -0.91250046      -0.76176594      -0.88680228
H        2.92211000      -3.90831000       0.91010000      -1.25863668       0.66044145      -1.96288469
O        2.37965000      -3.66088000       0.08900000       1.36490518       0.37324868       2.00746823
H        2.37921000      -2.64952000       0.08540000       0.06029622      -1.19409914       0.06188001
H        3.72835226       1.14171197       2.20133767       0.09164517      -1.44515609       0.17528778
O        3.70945226       0.15151197       2.25787767       1.98346899       0.62180949      -0.22563149
H        4.66359226      -0.17178803       2.22094767      -1.93527360       0.92840936       0.19120357
45
Properties=species:S:1:pos:R:3:REF_forces_OFF23(M):R:3 REF_energy_OFF23(M)=-31218.336926564753 pbc="F F F"
H        0.14737000      -1.64785000       0.03122000      -0.17263593      -0.65900076      -0.30451507
O        0.19138000      -2.64938000      -0.00421000       0.82028402       0.42820081       2.16901777
H        0.63351000      -2.89315000       0.88882000      -0.82133700       0.35584602      -2.00124686
H        4.22877000       0.40084000       1.60795000      -0.55436860      -0.81443615       1.07844142
O        3.75671000       0.07396000       2.41498000       0.54669768      -2.04777133      -0.73028155
H        3.82105000      -0.95075000       2.45183000       0.02984976       2.83919950      -0.46674446
H        1.01137000      -3.22567000       3.04137000       0.10740055      -0.38508488      -0.23615391
O        1.46161000      -3.50153000       2.23051000      -0.27872020      -2.56700445       0.16280512
H        1.33693781      -4.52060871       2.14807000       0.29851463       2.83104353       0.39748968
H        2.18634000       0.64674000       2.31620000      -1.88387614       0.61641724       0.21478363
O        1.21357000       1.01320000       2.30611000       0.65690337      -2.33026993       1.89020701
H        0.74020000       0.58659000       3.09894000       1.32637565       1.05500661      -1.89724895
H       -0.90322000       0.40508000       0.13467000       0.25919757      -0.40959938      -0.56236725
O       -0.00000000      -0.00000000      -0.00000000      -0.41282118       0.99819613       1.58419090
H        0.49895000       0.41784000       0.75243000      -0.24082837      -0.43711672      -0.78040764
H        0.70168000       0.58909000      -1.41839000       0.91798046       0.49724969      -1.39288703
O        1.28830000       0.93056000      -2.16556000      -1.21966146      -0.73252710      -0.23921998
H        0.82202000       0.75676000      -3.04102000       0.64674715       0.12048245       1.71615429
H        1.01245000      -3.11883000      -1.36139000       1.16635525      -0.75139819      -1.83156269
O        1.46965000      -3.49030000      -2.21173000      -0.33889467       0.77681880       1.43715744
H        2.38412000      -3.16530000      -2.19754000      -0.69484001      -0.10512938       0.10758928
H       -0.90427000       4.16543000      -0.00572000       1.18189600       0.52367780      -0.12994418
O        0.03352000       4.48100000      -0.02372000      -1.73725672       2.02305617       0.40793955
H        0.01038000       5.48806000      -0.01554000      -0.13372367      -2.07694966       0.01778259
H        1.25433000       2.66881000       2.40960000      -0.29954564       1.93189626      -0.65194711
O        1.20520000       3.66478000       2.28599000      -0.50784420      -0.65344482      -0.55839490
H        0.73705000       3.88647000       1.42581000       1.01565803      -0.78296805       1.56750073
H        1.26219000       2.60684000      -2.11446000       0.29027184       1.65433949       0.17540762
O        1.35535000       3.61858000      -2.13958000      -0.50054173      -0.70279380       0.63027546
H        0.94497000       3.98577000      -1.31170000       0.71310804      -0.99852337      -1.49467096
H        0.01167774      -0.75890196      -4.43446767       0.01266557       2.47275176       0.11402717
O       -0.00996226       0.26246803      -4.41166767       1.20068994      -1.92760686      -2.79462236
H        0.49417774       0.52819804      -5.26616767      -1.34551524      -0.69187140       2.28111468